
     Program PWSCF v.7.1 starts on  2Jul2023 at 18:57:36 

     This program is part of the open-source Quantum ESPRESSO suite
     for quantum simulation of materials; please cite
         "P. Giannozzi et al., J. Phys.:Condens. Matter 21 395502 (2009);
         "P. Giannozzi et al., J. Phys.:Condens. Matter 29 465901 (2017);
         "P. Giannozzi et al., J. Chem. Phys. 152 154105 (2020);
          URL http://www.quantum-espresso.org", 
     in publications or presentations arising from this work. More details at
     http://www.quantum-espresso.org/quote

     Parallel version (MPI & OpenMP), running on     640 processor cores
     Number of MPI processes:               320
     Threads/MPI process:                     2

     MPI processes distributed on    10 nodes
     487487 MiB available memory on the printing compute node when the environment starts

     Waiting for input...
     Reading input from standard input

     Current dimensions of program PWSCF are:
     Max number of different atomic species (ntypx) = 10
     Max number of k-points (npk) =  40000
     Max angular momentum in pseudopotentials (lmaxx) =  4

     Atomic positions and unit cell read from directory:
     ./out/MOSE2_WS2.save/
     Atomic positions from file used, from input discarded

     Message from routine setup:
     using ibrav=0 with symmetry is DISCOURAGED, use correct ibrav instead

     K-points division:     npool     =      16
     R & G space division:  proc/nbgrp/npool/nimage =      20
     Subspace diagonalization in iterative solution of the eigenvalue problem:
     a serial algorithm will be used

     Message from routine divide_et_impera:
     suboptimal parallelization: some nodes have no k-points

     Parallelization info
     --------------------
     sticks:   dense  smooth     PW     G-vecs:    dense   smooth      PW
     Min          46      46     13                 8798     8798    1371
     Max          47      47     14                 8831     8831    1399
     Sum         925     925    265               176313   176313   27839

     Using Slab Decomposition



     bravais-lattice index     =            0
     lattice parameter (alat)  =       6.1117  a.u.
     unit-cell volume          =    1528.2542 (a.u.)^3
     number of atoms/cell      =            6
     number of atomic types    =            4
     number of electrons       =        72.00
     number of Kohn-Sham states=          100
     kinetic-energy cutoff     =      90.0000  Ry
     charge density cutoff     =     360.0000  Ry
     Exchange-correlation= PBE
                           (   1   4   3   4   0   0   0)

     celldm(1)=   6.111715  celldm(2)=   0.000000  celldm(3)=   0.000000
     celldm(4)=   0.000000  celldm(5)=   0.000000  celldm(6)=   0.000000

     crystal axes: (cart. coord. in units of alat)
               a(1) = (   1.000000  -0.000000   0.000000 )  
               a(2) = (  -0.500000   0.866025   0.000000 )  
               a(3) = (   0.000000   0.000000   7.729934 )  

     reciprocal axes: (cart. coord. in units 2 pi/alat)
               b(1) = (  1.000000  0.577351 -0.000000 )  
               b(2) = (  0.000000  1.154701 -0.000000 )  
               b(3) = ( -0.000000 -0.000000  0.129367 )  


     PseudoPot. # 1 for Mo read from file:
     ./pseudo/Mo_ONCV_PBE_sr.upf
     MD5 check sum: 49ef1f739fd5ee11f4a56dc5f994b343
     Pseudo is Norm-conserving + core correction, Zval = 14.0
     Generated using ONCVPSP code by D. R. Hamann
     Using radial grid of 1640 points,  6 beta functions with: 
                l(1) =   0
                l(2) =   0
                l(3) =   1
                l(4) =   1
                l(5) =   2
                l(6) =   2

     PseudoPot. # 2 for S  read from file:
     ./pseudo/S_ONCV_PBE_sr.upf
     MD5 check sum: 0a7b1e3b8ed912888c590f2dcdc25257
     Pseudo is Norm-conserving + core correction, Zval =  6.0
     Generated using ONCVPSP code by D. R. Hamann
     Using radial grid of 1146 points,  6 beta functions with: 
                l(1) =   0
                l(2) =   0
                l(3) =   1
                l(4) =   1
                l(5) =   2
                l(6) =   2

     PseudoPot. # 3 for Se read from file:
     ./pseudo/Se_ONCV_PBE_sr.upf
     MD5 check sum: 0275729cb2f2a615607f5e2758d1d74e
     Pseudo is Norm-conserving + core correction, Zval = 16.0
     Generated using ONCVPSP code by D. R. Hamann
     Using radial grid of 1214 points,  6 beta functions with: 
                l(1) =   0
                l(2) =   0
                l(3) =   1
                l(4) =   1
                l(5) =   2
                l(6) =   2

     PseudoPot. # 4 for W  read from file:
     ./pseudo/W_ONCV_PBE_sr.upf
     MD5 check sum: ed1f8c5deb4c334b28f6f49839c97859
     Pseudo is Norm-conserving + core correction, Zval = 14.0
     Generated using ONCVPSP code by D. R. Hamann
     Using radial grid of 1396 points,  7 beta functions with: 
                l(1) =   0
                l(2) =   0
                l(3) =   1
                l(4) =   1
                l(5) =   2
                l(6) =   2
                l(7) =   3

     atomic species   valence    mass     pseudopotential
        Mo            14.00    95.96000     Mo( 1.00)
        S              6.00    32.06500     S ( 1.00)
        Se            16.00    78.96000     Se( 1.00)
        W             14.00   183.84000     W ( 1.00)

      6 Sym. Ops. (no inversion) found



   Cartesian axes

     site n.     atom                  positions (alat units)
         1           W   tau(   1) = (   0.0000000   0.0000000   2.8613115  )
         2           S   tau(   2) = (  -0.0000001   0.5773502   3.3403824  )
         3           S   tau(   3) = (  -0.0000001   0.5773502   2.3810191  )
         4           Mo  tau(   4) = (   0.0000000   0.0000000   4.8686957  )
         5           Se  tau(   5) = (   0.4999999   0.2886751   5.3935554  )
         6           Se  tau(   6) = (   0.4999999   0.2886751   4.3448389  )

     --------------------------------------------
     DFT-D3 Dispersion Correction (3-body terms):
     --------------------------------------------
       Reference C6 values for interpolation: 

         atom   Coordination number   C6
         S          0.000           268.01
         S          0.995           261.99
         S          1.990           251.62
         Se         0.000           427.35
         Se         0.990           427.57
         Se         1.981           421.05
         Mo         0.000          1691.79
         Mo         1.942          1004.01
         Mo        11.056           674.22
         W          0.000          1628.72
         W          1.929          1086.81
         W         10.915           796.19

       Values used:

         atom   Coordination number  R0_AB[au]  C6      C8
         W          9.339            3.766    796.19 128250.55
         S          3.633            3.128    251.62  12327.25
         S          3.565            3.128    251.62  12327.25
         Mo         9.571            3.547    674.22  77634.20
         Se         4.240            3.332    421.05  29958.36
         Se         4.312            3.332    421.05  29958.36

         Molecular C6 ( Ry / a.u.^6 ) =     16099.11


     number of k points=     4
                       cart. coord. in units 2pi/alat
        k(    1) = (   0.0000000   0.0000000   0.0000000), wk =   0.2222222
        k(    2) = (   0.0000000   0.3849002   0.0000000), wk =   0.6666667
        k(    3) = (   0.0000000   0.7698005   0.0000000), wk =   0.6666667
        k(    4) = (   0.3333333   0.5773504   0.0000000), wk =   0.4444444

     Dense  grid:   176313 G-vectors     FFT dimensions: (  40,  40, 288)

     Estimated max dynamical RAM per process >      39.57 MB

     Estimated total dynamical RAM >      12.37 GB

     The potential is recalculated from file :
     ./out/MOSE2_WS2.save/charge-density

     Starting wfcs are   46 randomized atomic wfcs +   54 random wfcs

     Band Structure Calculation
     Davidson diagonalization with overlap

     ethr =  1.39E-13,  avg # of iterations = 51.8

     total cpu time spent up to now is        9.7 secs

     End of band structure calculation

          k = 0.0000 0.0000 0.0000 ( 22049 PWs)   bands (ev):

   -71.0820 -57.1631 -44.0584 -44.0584 -44.0572 -44.0572 -44.0046 -44.0045
   -44.0031 -44.0031 -43.9863 -43.9843 -35.3231 -35.1461 -35.1461 -31.4315
   -31.0809 -31.0809 -11.6962 -10.9743 -10.1108  -9.9517  -3.2861  -2.0685
     0.0353   0.0353   0.6672   1.2003   1.2003   1.5807   1.5807   1.6748
     2.5467   2.5467   2.8505   3.4451   5.7100   5.7100   5.9231   5.9231
     6.5422   6.5422   6.7372   6.7372   7.8667   8.2312   8.4826   9.3569
     9.8592  10.6898  11.3185  11.9517  12.3382  12.4982  13.2073  13.2073
    13.7681  14.6556  14.6556  15.1783  15.5288  15.5288  15.6890  16.3300
    16.6078  16.6078  17.5278  18.0449  18.5682  18.6414  18.6414  19.0059
    19.0059  19.3068  19.8026  20.5421  20.5421  20.8454  20.8454  20.9126
    21.0705  22.2383  22.5515  23.9022  24.1115  24.3027  24.3027  25.2710
    25.2710  26.3315  26.3315  26.5130  26.8136  27.0346  27.0346  27.1867
    27.2839  27.2839  27.4572  27.5662

          k = 0.0000 0.3849 0.0000 ( 22048 PWs)   bands (ev):

   -71.0721 -57.1408 -44.0583 -44.0571 -44.0543 -44.0532 -44.0058 -44.0051
   -44.0044 -44.0036 -43.9844 -43.9822 -35.3577 -35.2847 -35.1961 -31.3795
   -31.3177 -31.1353 -10.3263  -9.6429  -9.5546  -9.2272  -2.7394  -1.6705
    -1.4568  -1.4086  -0.7239  -0.4043  -0.1681   1.0227   1.1333   1.1879
     1.6566   1.9280   2.4626   2.7098   5.3037   5.4405   5.6900   5.7149
     6.3999   6.8247   7.2800   7.5134   9.4588  10.0842  10.1392  10.7476
    10.9190  11.1993  11.3365  12.0011  12.0583  12.8925  13.4904  13.8936
    13.9500  14.5901  14.6956  15.0098  15.4675  15.9645  16.4353  16.7690
    16.7795  17.1136  17.2162  17.6792  17.7562  18.0570  18.3926  18.8675
    18.9177  19.2971  19.7778  19.9016  20.2487  20.4833  20.5133  21.3927
    21.8779  21.9213  22.1906  22.6452  22.6684  23.0476  23.2323  23.3433
    23.4905  23.7952  24.1270  24.2511  24.8068  24.8266  25.0922  25.1783
    25.5703  25.8357  26.2779  26.5263

          k = 0.0000 0.7698 0.0000 ( 22048 PWs)   bands (ev):

   -71.0721 -57.1408 -44.0583 -44.0571 -44.0543 -44.0532 -44.0058 -44.0051
   -44.0044 -44.0036 -43.9844 -43.9822 -35.3577 -35.2847 -35.1961 -31.3795
   -31.3177 -31.1353 -10.3263  -9.6429  -9.5546  -9.2272  -2.7394  -1.6705
    -1.4568  -1.4086  -0.7239  -0.4043  -0.1681   1.0227   1.1333   1.1879
     1.6566   1.9280   2.4626   2.7098   5.3037   5.4405   5.6900   5.7149
     6.3999   6.8247   7.2800   7.5134   9.4588  10.0842  10.1392  10.7476
    10.9190  11.1993  11.3365  12.0011  12.0583  12.8925  13.4904  13.8936
    13.9500  14.5901  14.6956  15.0098  15.4675  15.9645  16.4353  16.7690
    16.7795  17.1136  17.2162  17.6792  17.7562  18.0570  18.3926  18.8675
    18.9177  19.2971  19.7778  19.9016  20.2487  20.4833  20.5133  21.3927
    21.8779  21.9213  22.1906  22.6452  22.6684  23.0476  23.2323  23.3433
    23.4905  23.7952  24.1270  24.2511  24.8068  24.8266  25.0922  25.1783
    25.5703  25.8357  26.2779  26.5263

          k = 0.3333 0.5774 0.0000 ( 21957 PWs)   bands (ev):

   -71.0672 -57.1297 -44.0556 -44.0550 -44.0541 -44.0539 -44.0064 -44.0058
   -44.0046 -44.0038 -43.9835 -43.9812 -35.3569 -35.3270 -35.2654 -31.3534
   -31.3169 -31.2809  -9.4481  -9.2503  -8.7021  -8.6805  -2.6707  -2.3319
    -1.7436  -1.4542  -1.2496  -0.9771  -0.6118  -0.2426   0.1065   0.3279
     0.6779   1.1714   2.9846   3.6021   4.5754   5.2787   5.9072   6.2856
     6.8652   6.9638   8.1450   8.2446   9.2791   9.9703  10.3482  10.4579
    11.9167  13.1673  13.3747  13.5350  13.9084  13.9606  14.1931  14.5702
    14.7035  14.8217  15.1688  15.2813  15.3102  15.4928  15.6668  15.8674
    15.8861  16.1768  16.3776  16.8485  16.9586  17.0497  17.2127  17.2832
    17.6634  17.8796  18.9776  18.9787  19.0240  19.1001  19.4904  20.4818
    20.5652  20.8064  21.0287  21.0670  21.3236  21.9607  21.9693  23.2370
    23.6945  23.7721  24.0033  24.1789  24.8328  25.7649  25.8645  26.1256
    26.4260  26.6158  26.9307  27.0712

     Writing all to output data dir ./out/MOSE2_WS2.save/

     init_run     :      0.78s CPU      0.76s WALL (       1 calls)
     electrons    :      9.76s CPU      8.33s WALL (       1 calls)

     Called by init_run:
     wfcinit      :      0.00s CPU      0.00s WALL (       1 calls)
     potinit      :      0.03s CPU      0.03s WALL (       1 calls)
     hinit0       :      0.70s CPU      0.67s WALL (       1 calls)

     Called by electrons:
     c_bands      :      9.76s CPU      8.33s WALL (       1 calls)
     v_of_rho     :      0.02s CPU      0.02s WALL (       1 calls)

     Called by c_bands:
     init_us_2    :      0.00s CPU      0.00s WALL (       1 calls)
     init_us_2:cp :      0.00s CPU      0.00s WALL (       1 calls)
     cegterg      :      9.39s CPU      7.56s WALL (       3 calls)

     Called by *egterg:
     cdiaghg      :      2.90s CPU      2.89s WALL (      47 calls)
     h_psi        :      4.09s CPU      2.40s WALL (      50 calls)
     g_psi        :      0.00s CPU      0.00s WALL (      46 calls)

     Called by h_psi:
     h_psi:calbec :      0.57s CPU      0.37s WALL (      50 calls)
     vloc_psi     :      3.18s CPU      1.75s WALL (      50 calls)
     add_vuspsi   :      0.33s CPU      0.27s WALL (      50 calls)

     General routines
     calbec       :      0.57s CPU      0.37s WALL (      50 calls)
     fft          :      0.56s CPU      0.56s WALL (      11 calls)
     fftw         :      3.03s CPU      1.66s WALL (    4134 calls)
     davcio       :      0.00s CPU      0.01s WALL (       2 calls)

     Parallel routines

     PWSCF        :     11.04s CPU      9.85s WALL


   This run was terminated on:  18:57:45   2Jul2023            

=------------------------------------------------------------------------------=
   JOB DONE.
=------------------------------------------------------------------------------=
