
     Program PWSCF v.7.1 starts on  4Jul2023 at 10:33:56 

     This program is part of the open-source Quantum ESPRESSO suite
     for quantum simulation of materials; please cite
         "P. Giannozzi et al., J. Phys.:Condens. Matter 21 395502 (2009);
         "P. Giannozzi et al., J. Phys.:Condens. Matter 29 465901 (2017);
         "P. Giannozzi et al., J. Chem. Phys. 152 154105 (2020);
          URL http://www.quantum-espresso.org", 
     in publications or presentations arising from this work. More details at
     http://www.quantum-espresso.org/quote

     Parallel version (MPI & OpenMP), running on     640 processor cores
     Number of MPI processes:               320
     Threads/MPI process:                     2

     MPI processes distributed on    10 nodes
     486477 MiB available memory on the printing compute node when the environment starts

     Waiting for input...
     Reading input from standard input

     Current dimensions of program PWSCF are:
     Max number of different atomic species (ntypx) = 10
     Max number of k-points (npk) =  40000
     Max angular momentum in pseudopotentials (lmaxx) =  4

     Atomic positions and unit cell read from directory:
     ./out/MOSE2_WS2.save/
     Atomic positions from file used, from input discarded

     Message from routine setup:
     using ibrav=0 with symmetry is DISCOURAGED, use correct ibrav instead

     K-points division:     npool     =      16
     R & G space division:  proc/nbgrp/npool/nimage =      20
     Subspace diagonalization in iterative solution of the eigenvalue problem:
     a serial algorithm will be used


     Parallelization info
     --------------------
     sticks:   dense  smooth     PW     G-vecs:    dense   smooth      PW
     Min          46      46     16                 8798     8798    1898
     Max          47      47     18                 8831     8831    1913
     Sum         925     925    337               176313   176313   38079

     Using Slab Decomposition



     bravais-lattice index     =            0
     lattice parameter (alat)  =       6.1117  a.u.
     unit-cell volume          =    1528.2542 (a.u.)^3
     number of atoms/cell      =            6
     number of atomic types    =            4
     number of electrons       =        72.00
     number of Kohn-Sham states=           50
     kinetic-energy cutoff     =      90.0000  Ry
     charge density cutoff     =     360.0000  Ry
     Exchange-correlation= PBE
                           (   1   4   3   4   0   0   0)

     celldm(1)=   6.111715  celldm(2)=   0.000000  celldm(3)=   0.000000
     celldm(4)=   0.000000  celldm(5)=   0.000000  celldm(6)=   0.000000

     crystal axes: (cart. coord. in units of alat)
               a(1) = (   1.000000  -0.000000   0.000000 )  
               a(2) = (  -0.500000   0.866025   0.000000 )  
               a(3) = (   0.000000   0.000000   7.729934 )  

     reciprocal axes: (cart. coord. in units 2 pi/alat)
               b(1) = (  1.000000  0.577351 -0.000000 )  
               b(2) = (  0.000000  1.154701 -0.000000 )  
               b(3) = ( -0.000000 -0.000000  0.129367 )  


     PseudoPot. # 1 for Mo read from file:
     ./pseudo/Mo_ONCV_PBE_sr.upf
     MD5 check sum: 49ef1f739fd5ee11f4a56dc5f994b343
     Pseudo is Norm-conserving + core correction, Zval = 14.0
     Generated using ONCVPSP code by D. R. Hamann
     Using radial grid of 1640 points,  6 beta functions with: 
                l(1) =   0
                l(2) =   0
                l(3) =   1
                l(4) =   1
                l(5) =   2
                l(6) =   2

     PseudoPot. # 2 for S  read from file:
     ./pseudo/S_ONCV_PBE_sr.upf
     MD5 check sum: 0a7b1e3b8ed912888c590f2dcdc25257
     Pseudo is Norm-conserving + core correction, Zval =  6.0
     Generated using ONCVPSP code by D. R. Hamann
     Using radial grid of 1146 points,  6 beta functions with: 
                l(1) =   0
                l(2) =   0
                l(3) =   1
                l(4) =   1
                l(5) =   2
                l(6) =   2

     PseudoPot. # 3 for Se read from file:
     ./pseudo/Se_ONCV_PBE_sr.upf
     MD5 check sum: 0275729cb2f2a615607f5e2758d1d74e
     Pseudo is Norm-conserving + core correction, Zval = 16.0
     Generated using ONCVPSP code by D. R. Hamann
     Using radial grid of 1214 points,  6 beta functions with: 
                l(1) =   0
                l(2) =   0
                l(3) =   1
                l(4) =   1
                l(5) =   2
                l(6) =   2

     PseudoPot. # 4 for W  read from file:
     ./pseudo/W_ONCV_PBE_sr.upf
     MD5 check sum: ed1f8c5deb4c334b28f6f49839c97859
     Pseudo is Norm-conserving + core correction, Zval = 14.0
     Generated using ONCVPSP code by D. R. Hamann
     Using radial grid of 1396 points,  7 beta functions with: 
                l(1) =   0
                l(2) =   0
                l(3) =   1
                l(4) =   1
                l(5) =   2
                l(6) =   2
                l(7) =   3

     atomic species   valence    mass     pseudopotential
        Mo            14.00    95.96000     Mo( 1.00)
        S              6.00    32.06500     S ( 1.00)
        Se            16.00    78.96000     Se( 1.00)
        W             14.00   183.84000     W ( 1.00)

      6 Sym. Ops. (no inversion) found



   Cartesian axes

     site n.     atom                  positions (alat units)
         1           W   tau(   1) = (   0.0000000   0.0000000   2.8613115  )
         2           S   tau(   2) = (  -0.0000001   0.5773502   3.3403824  )
         3           S   tau(   3) = (  -0.0000001   0.5773502   2.3810191  )
         4           Mo  tau(   4) = (   0.0000000   0.0000000   4.8686957  )
         5           Se  tau(   5) = (   0.4999999   0.2886751   5.3935554  )
         6           Se  tau(   6) = (   0.4999999   0.2886751   4.3448389  )

     --------------------------------------------
     DFT-D3 Dispersion Correction (3-body terms):
     --------------------------------------------
       Reference C6 values for interpolation: 

         atom   Coordination number   C6
         S          0.000           268.01
         S          0.995           261.99
         S          1.990           251.62
         Se         0.000           427.35
         Se         0.990           427.57
         Se         1.981           421.05
         Mo         0.000          1691.79
         Mo         1.942          1004.01
         Mo        11.056           674.22
         W          0.000          1628.72
         W          1.929          1086.81
         W         10.915           796.19

       Values used:

         atom   Coordination number  R0_AB[au]  C6      C8
         W          9.339            3.766    796.19 128250.55
         S          3.633            3.128    251.62  12327.25
         S          3.565            3.128    251.62  12327.25
         Mo         9.571            3.547    674.22  77634.20
         Se         4.240            3.332    421.05  29958.36
         Se         4.312            3.332    421.05  29958.36

         Molecular C6 ( Ry / a.u.^6 ) =     16099.11


     number of k points=    64
                       cart. coord. in units 2pi/alat
        k(    1) = (   0.0587500   0.0873242   0.0000000), wk =   0.0312500
        k(    2) = (   0.0587500   0.2316618   0.0000000), wk =   0.0312500
        k(    3) = (   0.0587500   0.3759994   0.0000000), wk =   0.0312500
        k(    4) = (   0.0587500   0.5203370   0.0000000), wk =   0.0312500
        k(    5) = (   0.0587500   0.6646746   0.0000000), wk =   0.0312500
        k(    6) = (   0.0587500   0.8090122   0.0000000), wk =   0.0312500
        k(    7) = (   0.0587500   0.9533498   0.0000000), wk =   0.0312500
        k(    8) = (   0.0587500   1.0976874   0.0000000), wk =   0.0312500
        k(    9) = (   0.1837500   0.1594931   0.0000000), wk =   0.0312500
        k(   10) = (   0.1837500   0.3038307   0.0000000), wk =   0.0312500
        k(   11) = (   0.1837500   0.4481682   0.0000000), wk =   0.0312500
        k(   12) = (   0.1837500   0.5925058   0.0000000), wk =   0.0312500
        k(   13) = (   0.1837500   0.7368434   0.0000000), wk =   0.0312500
        k(   14) = (   0.1837500   0.8811810   0.0000000), wk =   0.0312500
        k(   15) = (   0.1837500   1.0255186   0.0000000), wk =   0.0312500
        k(   16) = (   0.1837500   1.1698562   0.0000000), wk =   0.0312500
        k(   17) = (   0.3087500   0.2316619   0.0000000), wk =   0.0312500
        k(   18) = (   0.3087500   0.3759995   0.0000000), wk =   0.0312500
        k(   19) = (   0.3087500   0.5203371   0.0000000), wk =   0.0312500
        k(   20) = (   0.3087500   0.6646746   0.0000000), wk =   0.0312500
        k(   21) = (   0.3087500   0.8090122   0.0000000), wk =   0.0312500
        k(   22) = (   0.3087500   0.9533498   0.0000000), wk =   0.0312500
        k(   23) = (   0.3087500   1.0976874   0.0000000), wk =   0.0312500
        k(   24) = (   0.3087500   1.2420250   0.0000000), wk =   0.0312500
        k(   25) = (   0.4337500   0.3038307   0.0000000), wk =   0.0312500
        k(   26) = (   0.4337500   0.4481683   0.0000000), wk =   0.0312500
        k(   27) = (   0.4337500   0.5925059   0.0000000), wk =   0.0312500
        k(   28) = (   0.4337500   0.7368435   0.0000000), wk =   0.0312500
        k(   29) = (   0.4337500   0.8811810   0.0000000), wk =   0.0312500
        k(   30) = (   0.4337500   1.0255186   0.0000000), wk =   0.0312500
        k(   31) = (   0.4337500   1.1698562   0.0000000), wk =   0.0312500
        k(   32) = (   0.4337500   1.3141938   0.0000000), wk =   0.0312500
        k(   33) = (   0.5587500   0.3759995   0.0000000), wk =   0.0312500
        k(   34) = (   0.5587500   0.5203371   0.0000000), wk =   0.0312500
        k(   35) = (   0.5587500   0.6646747   0.0000000), wk =   0.0312500
        k(   36) = (   0.5587500   0.8090123   0.0000000), wk =   0.0312500
        k(   37) = (   0.5587500   0.9533499   0.0000000), wk =   0.0312500
        k(   38) = (   0.5587500   1.0976874   0.0000000), wk =   0.0312500
        k(   39) = (   0.5587500   1.2420250   0.0000000), wk =   0.0312500
        k(   40) = (   0.5587500   1.3863626   0.0000000), wk =   0.0312500
        k(   41) = (   0.6837500   0.4481683   0.0000000), wk =   0.0312500
        k(   42) = (   0.6837500   0.5925059   0.0000000), wk =   0.0312500
        k(   43) = (   0.6837500   0.7368435   0.0000000), wk =   0.0312500
        k(   44) = (   0.6837500   0.8811811   0.0000000), wk =   0.0312500
        k(   45) = (   0.6837500   1.0255187   0.0000000), wk =   0.0312500
        k(   46) = (   0.6837500   1.1698563   0.0000000), wk =   0.0312500
        k(   47) = (   0.6837500   1.3141938   0.0000000), wk =   0.0312500
        k(   48) = (   0.6837500   1.4585314   0.0000000), wk =   0.0312500
        k(   49) = (   0.8087500   0.5203371   0.0000000), wk =   0.0312500
        k(   50) = (   0.8087500   0.6646747   0.0000000), wk =   0.0312500
        k(   51) = (   0.8087500   0.8090123   0.0000000), wk =   0.0312500
        k(   52) = (   0.8087500   0.9533499   0.0000000), wk =   0.0312500
        k(   53) = (   0.8087500   1.0976875   0.0000000), wk =   0.0312500
        k(   54) = (   0.8087500   1.2420251   0.0000000), wk =   0.0312500
        k(   55) = (   0.8087500   1.3863627   0.0000000), wk =   0.0312500
        k(   56) = (   0.8087500   1.5307002   0.0000000), wk =   0.0312500
        k(   57) = (   0.9337500   0.5925060   0.0000000), wk =   0.0312500
        k(   58) = (   0.9337500   0.7368435   0.0000000), wk =   0.0312500
        k(   59) = (   0.9337500   0.8811811   0.0000000), wk =   0.0312500
        k(   60) = (   0.9337500   1.0255187   0.0000000), wk =   0.0312500
        k(   61) = (   0.9337500   1.1698563   0.0000000), wk =   0.0312500
        k(   62) = (   0.9337500   1.3141939   0.0000000), wk =   0.0312500
        k(   63) = (   0.9337500   1.4585315   0.0000000), wk =   0.0312500
        k(   64) = (   0.9337500   1.6028691   0.0000000), wk =   0.0312500

     Dense  grid:   176313 G-vectors     FFT dimensions: (  40,  40, 288)

     Estimated max dynamical RAM per process >      26.43 MB

     Estimated total dynamical RAM >       8.26 GB

     The potential is recalculated from file :
     ./out/MOSE2_WS2.save/charge-density

     Starting wfcs are   46 randomized atomic wfcs +    4 random wfcs

     Band Structure Calculation
     Davidson diagonalization with overlap

     ethr =  1.39E-13,  avg # of iterations = 39.6

     total cpu time spent up to now is       13.2 secs

     End of band structure calculation

          k = 0.0588 0.0873 0.0000 ( 22009 PWs)   bands (ev):

   -71.0809 -57.1607 -44.0583 -44.0579 -44.0572 -44.0568 -44.0046 -44.0046
   -44.0033 -44.0032 -43.9861 -43.9841 -35.3190 -35.1689 -35.1516 -31.4260
   -31.1064 -31.0869 -11.5684 -10.8517 -10.0540  -9.8919  -3.1348  -1.9204
    -0.3011   0.1560   0.3313   0.9785   1.0737   1.2600   1.6789   1.7002
     2.3162   2.5978   2.8422   3.3180   5.6089   5.6984   5.8043   5.9615
     6.1951   6.2511   6.5519   6.7191   8.3016   8.4552   8.7922   9.5838
    10.3575  10.8944

          k = 0.0588 0.2317 0.0000 ( 22010 PWs)   bands (ev):

   -71.0772 -57.1522 -44.0582 -44.0571 -44.0564 -44.0553 -44.0051 -44.0048
   -44.0039 -44.0033 -43.9854 -43.9833 -35.3043 -35.2489 -35.1724 -31.4061
   -31.1960 -31.1096 -11.0794 -10.3764  -9.8533  -9.6433  -2.6082  -1.4264
    -1.2491  -0.4403   0.2558   0.2708   0.4359   0.5713   1.4704   1.6278
     2.0914   2.3739   2.5704   2.8367   5.1632   5.4248   5.5809   5.7199
     6.0085   6.0906   6.7371   7.1921   9.0371   9.1449  10.0282  10.4135
    11.1638  11.6204

          k = 0.0588 0.3760 0.0000 ( 22058 PWs)   bands (ev):

   -71.0722 -57.1411 -44.0582 -44.0570 -44.0545 -44.0533 -44.0058 -44.0051
   -44.0044 -44.0036 -43.9844 -43.9822 -35.3516 -35.2851 -35.1994 -31.3801
   -31.3109 -31.1391 -10.3454  -9.6587  -9.5642  -9.2371  -2.6639  -1.6429
    -1.4316  -1.3536  -0.6555  -0.3936  -0.2259   0.8843   0.9863   1.1975
     1.8227   2.0138   2.2166   2.8153   5.1759   5.4039   5.6773   5.8125
     6.2959   6.6695   7.3574   7.4933   9.6531  10.1047  10.1540  10.8923
    11.0655  11.2476

          k = 0.0588 0.5203 0.0000 ( 22059 PWs)   bands (ev):

   -71.0691 -57.1339 -44.0582 -44.0569 -44.0532 -44.0521 -44.0063 -44.0054
   -44.0046 -44.0037 -43.9838 -43.9815 -35.4173 -35.2726 -35.2169 -31.3843
   -31.3631 -31.1581  -9.7763  -9.4050  -9.0285  -8.9138  -3.2863  -2.2902
    -2.0308  -1.5320  -1.3127  -0.4744  -0.3695   0.7126   0.8890   1.1984
     1.4969   2.1715   2.3809   3.1188   5.5967   5.6927   5.9685   6.0569
     6.8228   7.1312   7.3775   7.5358   8.3056   9.4262  10.7095  10.8070
    11.0742  11.4980

          k = 0.0588 0.6647 0.0000 ( 22073 PWs)   bands (ev):

   -71.0695 -57.1348 -44.0582 -44.0569 -44.0533 -44.0522 -44.0062 -44.0054
   -44.0045 -44.0037 -43.9839 -43.9816 -35.4089 -35.2742 -35.2147 -31.3750
   -31.3653 -31.1557  -9.8546  -9.4311  -9.1119  -8.9584  -3.1993  -2.1730
    -1.9508  -1.4667  -1.2733  -0.4521  -0.3589   0.7253   0.9302   1.1647
     1.5406   2.1128   2.3393   3.0701   5.5386   5.6451   5.8908   5.9887
     6.7540   7.0639   7.4253   7.5338   8.5446   9.6451  10.6271  10.8133
    10.9479  11.4568

          k = 0.0588 0.8090 0.0000 ( 22054 PWs)   bands (ev):

   -71.0732 -57.1433 -44.0582 -44.0570 -44.0548 -44.0537 -44.0056 -44.0051
   -44.0043 -44.0035 -43.9846 -43.9824 -35.3313 -35.2889 -35.1941 -31.3853
   -31.2881 -31.1332 -10.5032  -9.8060  -9.6339  -9.3261  -2.5204  -1.6554
    -1.3165  -1.1668  -0.4283  -0.3732  -0.1416   0.9223   0.9681   1.2881
     1.9147   2.0844   2.2310   2.7474   5.1084   5.3643   5.6331   5.8104
     6.1533   6.5332   7.2661   7.4588   9.7142   9.8965  10.1559  10.9528
    11.0879  11.3773

          k = 0.0588 0.9533 0.0000 ( 22001 PWs)   bands (ev):

   -71.0781 -57.1544 -44.0583 -44.0572 -44.0568 -44.0557 -44.0049 -44.0048
   -44.0037 -44.0033 -43.9856 -43.9835 -35.3081 -35.2281 -35.1670 -31.4113
   -31.1728 -31.1036 -11.2117 -10.5061  -9.9055  -9.7132  -2.7368  -1.5408
    -1.0387  -0.2556   0.4174   0.4690   0.5039   0.6078   1.6098   1.7280
     1.9985   2.4792   2.6811   2.9440   5.2656   5.4951   5.5981   5.6958
     5.9994   6.1428   6.5664   7.0933   8.8610   8.9719   9.8036  10.1767
    11.0445  11.5383

          k = 0.0588 1.0977 0.0000 ( 22013 PWs)   bands (ev):

   -71.0813 -57.1617 -44.0583 -44.0581 -44.0572 -44.0570 -44.0046 -44.0046
   -44.0032 -44.0031 -43.9862 -43.9842 -35.3206 -35.1601 -35.1494 -31.4281
   -31.0966 -31.0845 -11.6184 -10.8997 -10.0760  -9.9156  -3.1937  -1.9778
    -0.1755   0.1096   0.4436   1.0720   1.1329   1.3812   1.6540   1.6702
     2.4156   2.5793   2.8481   3.3700   5.6441   5.7739   5.8505   5.8642
     6.3159   6.4013   6.6248   6.6509   8.1623   8.3716   8.6566   9.5041
    10.1781  10.8098

          k = 0.1838 0.1595 0.0000 ( 22016 PWs)   bands (ev):

   -71.0770 -57.1519 -44.0583 -44.0571 -44.0563 -44.0552 -44.0051 -44.0048
   -44.0039 -44.0033 -43.9854 -43.9832 -35.3037 -35.2526 -35.1726 -31.4053
   -31.2001 -31.1097 -11.0591 -10.3563  -9.8455  -9.6325  -2.5937  -1.4162
    -1.2774  -0.4861   0.2200   0.2821   0.3953   0.5979   1.4709   1.6224
     2.1227   2.3191   2.5272   2.8154   5.1547   5.4366   5.5702   5.7551
     6.0174   6.1260   6.7373   7.1949   9.0599   9.1671  10.0377  10.4318
    11.1499  11.6027

          k = 0.1838 0.3038 0.0000 ( 22019 PWs)   bands (ev):

   -71.0730 -57.1428 -44.0579 -44.0567 -44.0551 -44.0540 -44.0056 -44.0052
   -44.0042 -44.0036 -43.9846 -43.9824 -35.3228 -35.2881 -35.2085 -31.3841
   -31.2786 -31.1494 -10.4717  -9.7769  -9.6176  -9.3061  -2.3450  -1.6633
    -1.2110  -1.0903  -0.5309  -0.2663  -0.1495   0.3971   0.5372   1.5198
     1.7182   2.1226   2.3404   2.8751   4.8973   5.2209   5.7089   5.8665
     5.9180   6.1787   7.4657   7.5607   9.9333  10.0151  10.6314  11.0467
    11.5716  11.6741

          k = 0.1838 0.4482 0.0000 ( 22051 PWs)   bands (ev):

   -71.0693 -57.1343 -44.0573 -44.0561 -44.0541 -44.0530 -44.0061 -44.0056
   -44.0043 -44.0038 -43.9839 -43.9816 -35.3803 -35.2734 -35.2493 -31.3643
   -31.3427 -31.1946  -9.8342  -9.4066  -9.0975  -8.9353  -2.7705  -2.0738
    -1.7128  -1.3254  -1.1495  -0.5299  -0.1588   0.0346   0.2700   1.0166
     1.1370   1.7316   2.3086   3.1369   5.2391   5.5480   5.9777   6.1607
     6.2766   6.5239   7.6304   7.7940   9.4819  10.3459  10.9896  11.2456
    11.3717  11.9841

          k = 0.1838 0.5925 0.0000 ( 22030 PWs)   bands (ev):

   -71.0680 -57.1314 -44.0572 -44.0558 -44.0537 -44.0527 -44.0063 -44.0058
   -44.0044 -44.0039 -43.9837 -43.9814 -35.3988 -35.2684 -35.2643 -31.3634
   -31.3574 -31.2113  -9.5867  -9.3176  -8.8352  -8.7871  -2.9366  -2.3933
    -1.9659  -1.6218  -1.2541  -0.4264  -0.2569  -0.0666   0.3741   0.8500
     0.9654   1.4009   2.5807   3.3682   5.2225   5.5486   6.2870   6.3529
     6.5713   6.7560   7.5480   7.8167   8.7233   9.7118  11.0932  11.7065
    12.0005  12.0669

          k = 0.1838 0.7368 0.0000 ( 22039 PWs)   bands (ev):

   -71.0699 -57.1358 -44.0574 -44.0562 -44.0542 -44.0532 -44.0060 -44.0055
   -44.0043 -44.0038 -43.9840 -43.9818 -35.3708 -35.2759 -35.2420 -31.3677
   -31.3322 -31.1865  -9.9513  -9.4502  -9.2191  -9.0044  -2.6877  -1.9140
    -1.6085  -1.3092  -1.0103  -0.5543  -0.1479   0.1118   0.2504   1.0981
     1.2389   1.8667   2.2321   3.0672   5.1370   5.5254   5.8916   6.0965
     6.1999   6.4372   7.6244   7.7727   9.7785  10.5455  10.8267  11.0296
    11.4048  11.9088

          k = 0.1838 0.8812 0.0000 ( 22026 PWs)   bands (ev):

   -71.0739 -57.1449 -44.0580 -44.0568 -44.0553 -44.0542 -44.0055 -44.0051
   -44.0041 -44.0036 -43.9848 -43.9826 -35.3080 -35.2916 -35.1994 -31.3889
   -31.2620 -31.1394 -10.6116  -9.9142  -9.6733  -9.3856  -2.3176  -1.6795
    -1.1699  -0.9225  -0.4260  -0.2370   0.0059   0.5655   0.6169   1.5704
     1.8752   2.1512   2.4195   2.8271   4.9215   5.2096   5.6573   5.8089
     5.8802   6.1409   7.3530   7.4929   9.7183   9.8059  10.6792  10.8592
    11.5390  11.8358

          k = 0.1838 1.0255 0.0000 ( 21992 PWs)   bands (ev):

   -71.0777 -57.1533 -44.0583 -44.0572 -44.0566 -44.0555 -44.0050 -44.0048
   -44.0038 -44.0033 -43.9855 -43.9834 -35.3062 -35.2398 -35.1683 -31.4087
   -31.1858 -31.1051 -11.1462 -10.4418  -9.8796  -9.6789  -2.6771  -1.4859
    -1.1526  -0.3896   0.3657   0.4395   0.4885   0.5428   1.5111   1.7898
     2.0794   2.3137   2.5828   2.8756   5.2126   5.5132   5.5662   5.7548
     6.0998   6.1286   6.5932   7.1168   8.9396   9.0492   9.8856  10.2817
    11.0530  11.5326

          k = 0.1838 1.1699 0.0000 ( 22001 PWs)   bands (ev):

   -71.0789 -57.1562 -44.0583 -44.0572 -44.0571 -44.0560 -44.0049 -44.0047
   -44.0036 -44.0033 -43.9857 -43.9837 -35.3112 -35.2109 -35.1629 -31.4155
   -31.1535 -31.0993 -11.3163 -10.6080  -9.9476  -9.7672  -2.8470  -1.6440
    -0.8456  -0.0871   0.3734   0.5283   0.7115   0.7559   1.6978   1.8150
     1.9107   2.5752   2.7640   3.0489   5.3729   5.5393   5.6052   5.7464
     5.9656   6.2242   6.4350   7.0112   8.7219   8.8343   9.5684   9.9844
    10.9283  11.4061

          k = 0.3088 0.2317 0.0000 ( 22066 PWs)   bands (ev):

   -71.0721 -57.1407 -44.0582 -44.0570 -44.0544 -44.0532 -44.0058 -44.0051
   -44.0044 -44.0036 -43.9844 -43.9822 -35.3563 -35.2845 -35.1989 -31.3792
   -31.3162 -31.1384 -10.3186  -9.6367  -9.5495  -9.2222  -2.7121  -1.6574
    -1.4545  -1.3948  -0.7093  -0.3966  -0.2170   0.9289   1.0585   1.1583
     1.7592   1.9812   2.2919   2.8007   5.2271   5.4277   5.6766   5.7919
     6.3523   6.7401   7.3428   7.5010   9.5554  10.1204  10.1631  10.8119
    11.0057  11.2374

          k = 0.3088 0.3760 0.0000 ( 22039 PWs)   bands (ev):

   -71.0693 -57.1343 -44.0574 -44.0561 -44.0540 -44.0529 -44.0061 -44.0056
   -44.0043 -44.0038 -43.9839 -43.9816 -35.3838 -35.2734 -35.2460 -31.3642
   -31.3467 -31.1909  -9.8305  -9.4068  -9.0930  -8.9341  -2.8196  -2.0712
    -1.7651  -1.3452  -1.1679  -0.5230  -0.1850   0.1258   0.3097   1.0645
     1.1861   1.7106   2.3058   3.1424   5.2669   5.5604   5.9789   6.1523
     6.3325   6.5732   7.5856   7.7614   9.3600  10.2728  10.9943  11.2620
    11.3828  12.0048

          k = 0.3088 0.5203 0.0000 ( 21985 PWs)   bands (ev):

   -71.0674 -57.1302 -44.0560 -44.0549 -44.0544 -44.0535 -44.0064 -44.0058
   -44.0046 -44.0038 -43.9836 -43.9813 -35.3682 -35.3103 -35.2662 -31.3545
   -31.3291 -31.2627  -9.4875  -9.2672  -8.7372  -8.7134  -2.6073  -2.4703
    -1.6928  -1.4447  -1.2947  -0.8795  -0.3677  -0.3024   0.1336   0.2958
     0.7486   1.2568   2.8484   3.5185   4.7581   5.3462   5.9564   6.2998
     6.7103   6.8870   8.0702   8.1625   9.3161   9.9099  10.4368  10.7755
    11.8960  12.7279

          k = 0.3088 0.6647 0.0000 ( 21995 PWs)   bands (ev):

   -71.0677 -57.1307 -44.0563 -44.0551 -44.0544 -44.0533 -44.0063 -44.0058
   -44.0045 -44.0038 -43.9836 -43.9813 -35.3744 -35.2979 -35.2671 -31.3557
   -31.3360 -31.2489  -9.5324  -9.2860  -8.7821  -8.7453  -2.5731  -2.5309
    -1.6400  -1.5489  -1.2104  -0.7654  -0.3580  -0.2095   0.1999   0.2701
     0.8174   1.3416   2.7296   3.4398   4.9198   5.3991   6.0055   6.3041
     6.5872   6.7864   7.9898   8.0894   9.3298   9.9535  10.5331  11.0212
    11.8570  12.4597

          k = 0.3088 0.8090 0.0000 ( 22056 PWs)   bands (ev):

   -71.0698 -57.1356 -44.0577 -44.0564 -44.0540 -44.0529 -44.0061 -44.0055
   -44.0043 -44.0038 -43.9840 -43.9817 -35.3815 -35.2756 -35.2334 -31.3672
   -31.3442 -31.1768  -9.9318  -9.4469  -9.1974  -8.9955  -2.8336  -1.9278
    -1.7532  -1.3508  -1.0960  -0.5202  -0.2254   0.3608   0.4032   1.1253
     1.4598   1.7781   2.2217   3.0838   5.2296   5.5615   5.8917   6.0633
     6.3710   6.6054   7.5238   7.6814   9.4063  10.3303  10.8033  11.0450
    11.3489  11.8491

          k = 0.3088 0.9533 0.0000 ( 22061 PWs)   bands (ev):

   -71.0726 -57.1420 -44.0583 -44.0571 -44.0545 -44.0534 -44.0057 -44.0051
   -44.0044 -44.0035 -43.9845 -43.9823 -35.3464 -35.2867 -35.1940 -31.3822
   -31.3051 -31.1330 -10.4104  -9.7165  -9.5964  -9.2744  -2.6480  -1.6510
    -1.4056  -1.3076  -0.5999  -0.4014  -0.1247   1.0508   1.0996   1.1929
     1.7262   1.9700   2.4216   2.6865   5.2345   5.4259   5.6459   5.7465
     6.3170   6.7367   7.2451   7.4829   9.5770   9.9928  10.0977  10.8668
    10.9890  11.1738

          k = 0.3088 1.0977 0.0000 ( 22035 PWs)   bands (ev):

   -71.0745 -57.1462 -44.0581 -44.0569 -44.0555 -44.0544 -44.0054 -44.0050
   -44.0041 -44.0035 -43.9849 -43.9827 -35.3004 -35.2938 -35.1919 -31.3919
   -31.2536 -31.1310 -10.6969  -9.9984  -9.7067  -9.4339  -2.3611  -1.6504
    -1.1984  -0.8623  -0.2673  -0.2060   0.0231   0.6974   0.8270   1.5351
     2.0306   2.1559   2.3917   2.7784   4.9835   5.2552   5.6253   5.8125
     5.8902   6.1858   7.2284   7.4337   9.5765   9.6697  10.5072  10.7893
    11.4091  11.7421

          k = 0.3088 1.2420 0.0000 ( 22054 PWs)   bands (ev):

   -71.0742 -57.1456 -44.0582 -44.0570 -44.0553 -44.0542 -44.0055 -44.0050
   -44.0042 -44.0035 -43.9848 -43.9827 -35.3079 -35.2929 -35.1905 -31.3907
   -31.2620 -31.1294 -10.6614  -9.9627  -9.6939  -9.4144  -2.4034  -1.6576
    -1.2244  -0.9511  -0.2789  -0.2069  -0.0621   0.7846   0.9555   1.4378
     2.0728   2.1369   2.2757   2.7455   5.0307   5.3050   5.6162   5.8351
     5.9627   6.3129   7.2014   7.4241   9.5997   9.7002  10.3549  10.8056
    11.2747  11.6854

          k = 0.4338 0.3038 0.0000 ( 22050 PWs)   bands (ev):

   -71.0690 -57.1338 -44.0583 -44.0569 -44.0531 -44.0520 -44.0063 -44.0054
   -44.0046 -44.0037 -43.9838 -43.9815 -35.4198 -35.2725 -35.2151 -31.3871
   -31.3629 -31.1560  -9.7692  -9.4040  -9.0204  -8.9106  -3.3205  -2.3287
    -2.0310  -1.5470  -1.3216  -0.4748  -0.3801   0.7438   0.8727   1.2986
     1.4831   2.1511   2.4904   3.0948   5.6188   5.7110   5.9597   6.0602
     6.8099   7.1576   7.4048   7.5770   8.2242   9.3573  10.6488  10.7341
    11.0348  11.4147

          k = 0.4338 0.4482 0.0000 ( 22028 PWs)   bands (ev):

   -71.0681 -57.1317 -44.0573 -44.0560 -44.0537 -44.0526 -44.0063 -44.0058
   -44.0044 -44.0039 -43.9837 -43.9814 -35.4019 -35.2689 -35.2581 -31.3669
   -31.3581 -31.2043  -9.6078  -9.3276  -8.8567  -8.8017  -2.9898  -2.3521
    -2.0163  -1.6082  -1.2600  -0.4429  -0.2650   0.0692   0.3965   0.8668
     1.1135   1.4248   2.5393   3.3437   5.2902   5.5727   6.2596   6.3891
     6.5508   6.7899   7.4718   7.7602   8.6686   9.6737  11.2341  11.6429
    11.9388  12.0227

          k = 0.4338 0.5925 0.0000 ( 21987 PWs)   bands (ev):

   -71.0678 -57.1310 -44.0564 -44.0552 -44.0543 -44.0533 -44.0063 -44.0058
   -44.0045 -44.0038 -43.9836 -43.9813 -35.3752 -35.2936 -35.2676 -31.3564
   -31.3370 -31.2441  -9.5578  -9.2960  -8.8085  -8.7620  -2.5929  -2.4959
    -1.6138  -1.5568  -1.1829  -0.7273  -0.3829  -0.1482   0.2149   0.2541
     0.8536   1.3867   2.6755   3.4009   4.9872   5.4146   6.0170   6.2945
     6.5286   6.7343   7.9678   8.0624   9.3955   9.9580  10.6336  11.0489
    11.8213  12.3473

          k = 0.4338 0.7368 0.0000 ( 22054 PWs)   bands (ev):

   -71.0683 -57.1321 -44.0576 -44.0562 -44.0535 -44.0524 -44.0063 -44.0057
   -44.0044 -44.0039 -43.9837 -43.9814 -35.4090 -35.2695 -35.2466 -31.3749
   -31.3589 -31.1914  -9.6338  -9.3422  -8.8823  -8.8210  -3.1054  -2.2897
    -2.1297  -1.6073  -1.2805  -0.4639  -0.2957   0.3557   0.4666   0.8728
     1.4219   1.4535   2.4796   3.3145   5.4022   5.6243   6.2097   6.3825
     6.6647   6.9157   7.2976   7.6387   8.4995   9.5413  11.3846  11.6281
    11.7244  11.9023

          k = 0.4338 0.8812 0.0000 ( 22049 PWs)   bands (ev):

   -71.0692 -57.1343 -44.0584 -44.0570 -44.0531 -44.0520 -44.0063 -44.0053
   -44.0046 -44.0037 -43.9839 -43.9816 -35.4177 -35.2733 -35.2113 -31.3848
   -31.3641 -31.1518  -9.8110  -9.4195  -9.0643  -8.9355  -3.3085  -2.3018
    -1.9814  -1.5182  -1.3141  -0.4540  -0.3890   0.8100   0.8652   1.4283
     1.4829   2.0584   2.6408   3.0025   5.6165   5.7200   5.8595   6.0222
     6.7608   7.1449   7.4682   7.6472   8.2728   9.4105  10.5296  10.6244
    10.8827  11.3077

          k = 0.4338 1.0255 0.0000 ( 22059 PWs)   bands (ev):

   -71.0702 -57.1364 -44.0580 -44.0567 -44.0539 -44.0528 -44.0061 -44.0054
   -44.0044 -44.0037 -43.9840 -43.9818 -35.3852 -35.2770 -35.2203 -31.3690
   -31.3484 -31.1622  -9.9911  -9.4734  -9.2566  -9.0329  -2.9186  -1.8724
    -1.7908  -1.3919  -1.0831  -0.4733  -0.2896   0.5571   0.7289   1.0929
     1.7376   1.8530   2.1467   3.0439   5.2798   5.5502   5.8482   5.9746
     6.4925   6.7559   7.4679   7.5707   9.2322  10.2104  10.6282  10.8656
    11.1702  11.6243

          k = 0.4338 1.1699 0.0000 ( 22030 PWs)   bands (ev):

   -71.0705 -57.1371 -44.0575 -44.0562 -44.0544 -44.0534 -44.0060 -44.0055
   -44.0043 -44.0038 -43.9841 -43.9819 -35.3601 -35.2782 -35.2376 -31.3707
   -31.3202 -31.1817 -10.0546  -9.4898  -9.3241  -9.0644  -2.5835  -1.7697
    -1.5192  -1.3095  -0.8417  -0.5696  -0.1356   0.1358   0.2082   1.1234
     1.3283   1.9961   2.1873   3.0174   5.0369   5.4560   5.8549   6.0583
     6.1021   6.3347   7.6271   7.7680  10.0886  10.6207  10.6800  10.9693
    11.4827  11.7832

          k = 0.4338 1.3142 0.0000 ( 22081 PWs)   bands (ev):

   -71.0700 -57.1360 -44.0581 -44.0568 -44.0536 -44.0525 -44.0061 -44.0054
   -44.0045 -44.0037 -43.9840 -43.9818 -35.3941 -35.2763 -35.2154 -31.3682
   -31.3583 -31.1565  -9.9596  -9.4651  -9.2229  -9.0168  -3.0329  -1.9733
    -1.8417  -1.4153  -1.1569  -0.4451  -0.3257   0.6697   0.9563   1.0249
     1.6469   2.0675   2.1492   3.0393   5.3886   5.5782   5.8491   5.9441
     6.6180   6.9056   7.4560   7.5180   8.9588  10.0031  10.5878  10.8242
    11.0111  11.5049

          k = 0.5588 0.3760 0.0000 ( 22061 PWs)   bands (ev):

   -71.0696 -57.1352 -44.0583 -44.0569 -44.0534 -44.0523 -44.0062 -44.0053
   -44.0046 -44.0037 -43.9839 -43.9817 -35.4073 -35.2748 -35.2119 -31.3732
   -31.3661 -31.1526  -9.8852  -9.4425  -9.1437  -8.9765  -3.1904  -2.1538
    -1.9149  -1.4574  -1.2584  -0.4349  -0.3661   0.7703   0.9298   1.2453
     1.5376   2.0644   2.4228   3.0272   5.5428   5.6349   5.8421   5.9631
     6.7287   7.0727   7.4429   7.5625   8.5742   9.6785  10.5540  10.7448
    10.8607  11.3792

          k = 0.5588 0.5203 0.0000 ( 22044 PWs)   bands (ev):

   -71.0702 -57.1365 -44.0575 -44.0563 -44.0543 -44.0532 -44.0060 -44.0055
   -44.0043 -44.0038 -43.9841 -43.9818 -35.3684 -35.2772 -35.2361 -31.3693
   -31.3295 -31.1799 -10.0067  -9.4724  -9.2754  -9.0375  -2.6805  -1.8350
    -1.5959  -1.3274  -0.9490  -0.5506  -0.1731   0.2172   0.2857   1.1908
     1.3053   1.9076   2.1999   3.0418   5.1085   5.5016   5.8640   6.0601
     6.2016   6.4385   7.5943   7.7369   9.8137  10.5575  10.7315  10.9751
    11.4136  11.8294

          k = 0.5588 0.6647 0.0000 ( 22066 PWs)   bands (ev):

   -71.0701 -57.1363 -44.0577 -44.0564 -44.0541 -44.0530 -44.0060 -44.0055
   -44.0043 -44.0038 -43.9841 -43.9818 -35.3757 -35.2769 -35.2307 -31.3689
   -31.3377 -31.1738  -9.9910  -9.4688  -9.2584  -9.0299  -2.7789  -1.8523
    -1.6865  -1.3521  -1.0162  -0.5236  -0.2227   0.3673   0.4080   1.1704
     1.4778   1.8390   2.1914   3.0522   5.1740   5.5282   5.8621   6.0370
     6.3160   6.5574   7.5363   7.6772   9.5619  10.4298  10.7170  10.9592
    11.3511  11.7908

          k = 0.5588 0.8090 0.0000 ( 22054 PWs)   bands (ev):

   -71.0694 -57.1347 -44.0584 -44.0570 -44.0532 -44.0521 -44.0063 -44.0053
   -44.0046 -44.0037 -43.9839 -43.9816 -35.4136 -35.2741 -35.2103 -31.3803
   -31.3652 -31.1507  -9.8489  -9.4320  -9.1046  -8.9569  -3.2655  -2.2440
    -1.9448  -1.4888  -1.2942  -0.4369  -0.3859   0.8223   0.8820   1.4115
     1.4934   2.0297   2.6126   2.9845   5.5965   5.7003   5.8114   5.9907
     6.7427   7.1277   7.4627   7.6378   8.3867   9.5153  10.5116  10.6299
    10.8293  11.3031

          k = 0.5588 0.9533 0.0000 ( 22054 PWs)   bands (ev):

   -71.0685 -57.1327 -44.0579 -44.0566 -44.0532 -44.0521 -44.0063 -44.0056
   -44.0045 -44.0038 -43.9837 -43.9814 -35.4171 -35.2705 -35.2311 -31.3841
   -31.3603 -31.1740  -9.6789  -9.3657  -8.9273  -8.8531  -3.2438  -2.2833
    -2.1681  -1.5987  -1.3073  -0.4858  -0.3387   0.5751   0.7919   0.8748
     1.4640   1.9090   2.3775   3.2554   5.5410   5.6836   6.1227   6.2514
     6.9519   7.0675   7.1331   7.4910   8.2974   9.3890  11.1101  11.2378
    11.5702  12.0048

          k = 0.5588 1.0977 0.0000 ( 22019 PWs)   bands (ev):

   -71.0679 -57.1313 -44.0567 -44.0554 -44.0541 -44.0531 -44.0063 -44.0058
   -44.0045 -44.0039 -43.9837 -43.9814 -35.3831 -35.2818 -35.2682 -31.3572
   -31.3458 -31.2309  -9.5833  -9.3088  -8.8343  -8.7802  -2.7096  -2.4428
    -1.7141  -1.5738  -1.1994  -0.4975  -0.4104  -0.1722   0.2752   0.4761
     0.8789   1.4193   2.6161   3.3675   5.0921   5.4590   6.1036   6.3061
     6.5060   6.6857   7.8313   7.9851   9.1700  10.0219  10.6662  11.4134
    11.8118  12.2277

          k = 0.5588 1.2420 0.0000 ( 22016 PWs)   bands (ev):

   -71.0680 -57.1315 -44.0570 -44.0556 -44.0539 -44.0528 -44.0063 -44.0058
   -44.0044 -44.0039 -43.9837 -43.9814 -35.3910 -35.2717 -35.2685 -31.3576
   -31.3547 -31.2196  -9.5947  -9.3167  -8.8451  -8.7897  -2.8264  -2.4054
    -1.8412  -1.5857  -1.2260  -0.4251  -0.2739  -0.2067   0.3183   0.7326
     0.8830   1.4245   2.5831   3.3559   5.1728   5.5037   6.2010   6.3141
     6.5242   6.6908   7.6894   7.9005   8.9521   9.8978  10.8750  11.6241
    11.8553  12.1277

          k = 0.5588 1.3864 0.0000 ( 22060 PWs)   bands (ev):

   -71.0687 -57.1331 -44.0581 -44.0567 -44.0531 -44.0520 -44.0064 -44.0055
   -44.0045 -44.0038 -43.9838 -43.9815 -35.4203 -35.2712 -35.2230 -31.3876
   -31.3613 -31.1649  -9.7109  -9.3809  -8.9597  -8.8746  -3.3035  -2.3313
    -2.1117  -1.5868  -1.3198  -0.4895  -0.3618   0.6521   0.8712   1.0477
     1.4723   2.1770   2.3124   3.2002   5.5971   5.7070   6.0701   6.1571
     6.9236   7.1420   7.2419   7.4783   8.2119   9.3289  10.9068  10.9637
    11.3424  11.6779

          k = 0.6838 0.4482 0.0000 ( 22054 PWs)   bands (ev):

   -71.0735 -57.1440 -44.0582 -44.0571 -44.0549 -44.0538 -44.0056 -44.0050
   -44.0043 -44.0035 -43.9847 -43.9825 -35.3259 -35.2902 -35.1911 -31.3869
   -31.2821 -31.1299 -10.5522  -9.8540  -9.6533  -9.3538  -2.5028  -1.6606
    -1.2969  -1.1206  -0.3772  -0.3593  -0.0802   0.9431   1.0582   1.2908
     1.9006   2.0866   2.3014   2.6974   5.1216   5.3795   5.6103   5.8016
     6.1439   6.5392   7.2032   7.4391   9.6543   9.8222  10.1502  10.8973
    11.0815  11.3961

          k = 0.6838 0.5925 0.0000 ( 22021 PWs)   bands (ev):

   -71.0744 -57.1459 -44.0580 -44.0569 -44.0555 -44.0544 -44.0054 -44.0050
   -44.0041 -44.0035 -43.9849 -43.9827 -35.2995 -35.2934 -35.1957 -31.3914
   -31.2526 -31.1352 -10.6814  -9.9834  -9.7001  -9.4248  -2.3192  -1.6620
    -1.1720  -0.8254  -0.3780  -0.1965   0.0984   0.6242   0.6375   1.6014
     1.9258   2.1829   2.4689   2.8095   4.9359   5.2106   5.6361   5.7738
     5.8650   6.1087   7.2916   7.4638   9.6158   9.7070  10.6634  10.8206
    11.5406  11.7967

          k = 0.6838 0.7368 0.0000 ( 22062 PWs)   bands (ev):

   -71.0731 -57.1431 -44.0583 -44.0571 -44.0547 -44.0536 -44.0056 -44.0051
   -44.0043 -44.0035 -43.9846 -43.9824 -35.3364 -35.2885 -35.1915 -31.3847
   -31.2939 -31.1303 -10.4863  -9.7891  -9.6281  -9.3172  -2.5788  -1.6550
    -1.3540  -1.2159  -0.4916  -0.3910  -0.0749   1.0513   1.0909   1.2408
     1.7718   2.0066   2.4269   2.6449   5.1951   5.4173   5.6183   5.7605
     6.2509   6.6720   7.1976   7.4568   9.6156   9.8951  10.0879  10.9097
    10.9995  11.2273

          k = 0.6838 0.8812 0.0000 ( 22066 PWs)   bands (ev):

   -71.0705 -57.1372 -44.0580 -44.0567 -44.0540 -44.0529 -44.0060 -44.0054
   -44.0044 -44.0037 -43.9841 -43.9819 -35.3785 -35.2783 -35.2180 -31.3709
   -31.3408 -31.1597 -10.0528  -9.4965  -9.3196  -9.0683  -2.8541  -1.7998
    -1.7125  -1.3959  -0.9997  -0.4667  -0.2870   0.5631   0.7250   1.1339
     1.7886   1.8531   2.1219   3.0123   5.2252   5.5092   5.8218   5.9528
     6.4260   6.7035   7.4854   7.5663   9.3903  10.3063  10.5558  10.8033
    11.1788  11.5857

          k = 0.6838 1.0255 0.0000 ( 22017 PWs)   bands (ev):

   -71.0681 -57.1316 -44.0568 -44.0555 -44.0541 -44.0531 -44.0063 -44.0058
   -44.0044 -44.0039 -43.9837 -43.9814 -35.3821 -35.2789 -35.2688 -31.3579
   -31.3447 -31.2276  -9.6122  -9.3196  -8.8649  -8.7982  -2.7074  -2.4033
    -1.7009  -1.5327  -1.1837  -0.4745  -0.4315  -0.1388   0.2576   0.4910
     0.9158   1.4659   2.5689   3.3306   5.1398   5.4623   6.0986   6.2824
     6.4510   6.6414   7.8258   7.9692   9.2605  10.0695  10.7275  11.3916
    11.7538  12.1487

          k = 0.6838 1.1699 0.0000 ( 21963 PWs)   bands (ev):

   -71.0672 -57.1297 -44.0557 -44.0550 -44.0542 -44.0538 -44.0064 -44.0058
   -44.0046 -44.0038 -43.9835 -43.9812 -35.3594 -35.3238 -35.2655 -31.3535
   -31.3196 -31.2775  -9.4530  -9.2525  -8.7062  -8.6849  -2.6623  -2.3574
    -1.7375  -1.4266  -1.2924  -0.9568  -0.5695  -0.2510   0.1109   0.3238
     0.6874   1.1826   2.9648   3.5907   4.6022   5.2892   5.9150   6.2889
     6.8419   6.9563   8.1329   8.2318   9.2782   9.9647  10.3149  10.5491
    11.9157  13.0769

          k = 0.6838 1.3142 0.0000 ( 22041 PWs)   bands (ev):

   -71.0685 -57.1326 -44.0571 -44.0558 -44.0540 -44.0529 -44.0062 -44.0057
   -44.0044 -44.0039 -43.9838 -43.9815 -35.3853 -35.2704 -35.2647 -31.3602
   -31.3483 -31.2117  -9.6901  -9.3515  -8.9464  -8.8478  -2.7823  -2.2798
    -1.7615  -1.4506  -1.1901  -0.4800  -0.2333  -0.1326   0.2670   0.7687
     0.9943   1.5656   2.4538   3.2499   5.2597   5.4993   6.1165   6.2519
     6.3520   6.5878   7.7047   7.8753   9.2535  10.1331  10.9525  11.4337
    11.6197  12.0121

          k = 0.6838 1.4585 0.0000 ( 22068 PWs)   bands (ev):

   -71.0711 -57.1385 -44.0581 -44.0569 -44.0541 -44.0530 -44.0059 -44.0053
   -44.0044 -44.0036 -43.9842 -43.9820 -35.3720 -35.2806 -35.2090 -31.3740
   -31.3336 -31.1496 -10.1542  -9.5397  -9.4185  -9.1278  -2.8215  -1.7367
    -1.6092  -1.4238  -0.8997  -0.4119  -0.3056   0.7125   0.9138   1.1358
     1.7824   2.0236   2.0959   2.9393   5.2287   5.4639   5.7622   5.8799
     6.4170   6.7441   7.4779   7.5021   9.4367  10.2630  10.3905  10.7169
    11.0664  11.4211

          k = 0.8088 0.5203 0.0000 ( 21997 PWs)   bands (ev):

   -71.0785 -57.1552 -44.0583 -44.0572 -44.0569 -44.0558 -44.0049 -44.0047
   -44.0037 -44.0033 -43.9857 -43.9836 -35.3094 -35.2216 -35.1648 -31.4130
   -31.1654 -31.1013 -11.2550 -10.5483  -9.9228  -9.7357  -2.7832  -1.5838
    -0.9637  -0.2072   0.4336   0.5137   0.5822   0.6513   1.6178   1.8219
     1.9730   2.4783   2.7001   2.9811   5.3048   5.5336   5.6080   5.7160
     6.0197   6.1871   6.4888   7.0482   8.8006   8.9121   9.7013  10.0925
    10.9808  11.4640

          k = 0.8088 0.6647 0.0000 ( 22012 PWs)   bands (ev):

   -71.0781 -57.1544 -44.0583 -44.0572 -44.0568 -44.0557 -44.0049 -44.0048
   -44.0037 -44.0033 -43.9856 -43.9835 -35.3081 -35.2296 -35.1659 -31.4112
   -31.1744 -31.1024 -11.2098 -10.5041  -9.9048  -9.7123  -2.7391  -1.5425
    -1.0468  -0.2969   0.4794   0.4872   0.5234   0.5685   1.5500   1.8595
     2.0250   2.3697   2.6429   2.9326   5.2617   5.5412   5.5886   5.7359
     6.0864   6.1621   6.5142   7.0687   8.8561   8.9670   9.7759  10.1703
    11.0004  11.4818

          k = 0.8088 0.8090 0.0000 ( 22036 PWs)   bands (ev):

   -71.0750 -57.1473 -44.0581 -44.0570 -44.0557 -44.0545 -44.0053 -44.0050
   -44.0041 -44.0035 -43.9850 -43.9828 -35.2958 -35.2907 -35.1887 -31.3945
   -31.2428 -31.1275 -10.7691 -10.0700  -9.7340  -9.4740  -2.3742  -1.6104
    -1.2117  -0.7656  -0.2076  -0.1433   0.1215   0.6782   0.8930   1.5729
     2.0523   2.2035   2.4497   2.7707   4.9966   5.2608   5.6108   5.7788
     5.8783   6.1382   7.1626   7.4040   9.4764   9.5722  10.4806  10.7584
    11.4204  11.7119

          k = 0.8088 0.9533 0.0000 ( 22029 PWs)   bands (ev):

   -71.0708 -57.1379 -44.0575 -44.0563 -44.0545 -44.0534 -44.0059 -44.0054
   -44.0043 -44.0038 -43.9842 -43.9820 -35.3560 -35.2796 -35.2323 -31.3726
   -31.3156 -31.1758 -10.1161  -9.5160  -9.3843  -9.1007  -2.5578  -1.6816
    -1.5174  -1.3105  -0.7663  -0.5566  -0.1624   0.2194   0.2378   1.2248
     1.3740   2.0465   2.1644   2.9942   5.0036   5.4141   5.8353   6.0252
     6.0853   6.3202   7.6020   7.7354  10.1428  10.5455  10.5780  11.0461
    11.4890  11.6805

          k = 0.8088 1.0977 0.0000 ( 22024 PWs)   bands (ev):

   -71.0682 -57.1318 -44.0571 -44.0558 -44.0539 -44.0528 -44.0063 -44.0058
   -44.0044 -44.0039 -43.9837 -43.9814 -35.3935 -35.2691 -35.2650 -31.3584
   -31.3574 -31.2120  -9.6243  -9.3296  -8.8757  -8.8092  -2.8740  -2.3545
    -1.8836  -1.5586  -1.2289  -0.4460  -0.2244  -0.1287   0.3307   0.8597
     0.9260   1.4619   2.5315   3.3222   5.2450   5.5241   6.2104   6.3120
     6.4816   6.6888   7.6223   7.8486   8.9245   9.8869  11.0111  11.6009
    11.8405  12.0449

          k = 0.8088 1.2420 0.0000 ( 22031 PWs)   bands (ev):

   -71.0685 -57.1326 -44.0572 -44.0559 -44.0539 -44.0529 -44.0062 -44.0057
   -44.0044 -44.0039 -43.9838 -43.9815 -35.3889 -35.2705 -35.2606 -31.3602
   -31.3523 -31.2072  -9.6909  -9.3535  -8.9466  -8.8494  -2.8344  -2.2686
    -1.8187  -1.4657  -1.2061  -0.4799  -0.1937  -0.0965   0.2970   0.8851
     0.9941   1.5564   2.4473   3.2519   5.2879   5.5169   6.1294   6.2696
     6.3735   6.6223   7.6445   7.8387   9.1363  10.0649  11.0288  11.4551
    11.6446  12.0095

          k = 0.8088 1.3864 0.0000 ( 22025 PWs)   bands (ev):

   -71.0717 -57.1398 -44.0577 -44.0565 -44.0547 -44.0536 -44.0058 -44.0053
   -44.0042 -44.0037 -43.9843 -43.9821 -35.3438 -35.2828 -35.2228 -31.3770
   -31.3020 -31.1653 -10.2551  -9.5894  -9.5048  -9.1816  -2.4654  -1.5675
    -1.4689  -1.2485  -0.6346  -0.4595  -0.2036   0.2645   0.3588   1.3713
     1.4887   2.1246   2.1803   2.9461   4.9332   5.3164   5.7922   5.9623
     6.0127   6.2564   7.5624   7.6744  10.2296  10.3519  10.4529  11.2831
    11.4057  11.5672

          k = 0.8088 1.5307 0.0000 ( 22024 PWs)   bands (ev):

   -71.0758 -57.1491 -44.0582 -44.0571 -44.0559 -44.0548 -44.0052 -44.0049
   -44.0040 -44.0034 -43.9851 -43.9830 -35.2990 -35.2762 -35.1814 -31.3989
   -31.2265 -31.1195 -10.8881 -10.1878  -9.7796  -9.5398  -2.4522  -1.5077
    -1.2735  -0.6598  -0.0266  -0.0006   0.2198   0.6746   1.1595   1.5645
     2.1326   2.2558   2.4610   2.7541   5.0607   5.3264   5.5858   5.7731
     5.9094   6.1402   6.9931   7.3251   9.3003   9.4016  10.2980  10.6555
    11.3115  11.6575

          k = 0.9338 0.5925 0.0000 ( 22015 PWs)   bands (ev):

   -71.0815 -57.1621 -44.0583 -44.0582 -44.0572 -44.0570 -44.0046 -44.0046
   -44.0032 -44.0031 -43.9863 -43.9842 -35.3213 -35.1558 -35.1484 -31.4292
   -31.0918 -31.0834 -11.6425 -10.9228 -10.0867  -9.9268  -3.2221  -2.0057
    -0.1123   0.0868   0.5053   1.1107   1.1613   1.4416   1.6315   1.6691
     2.4553   2.5736   2.8499   3.3943   5.6611   5.8160   5.8176   5.8725
     6.3777   6.4917   6.6186   6.6586   8.0817   8.3306   8.5985   9.4632
    10.0845  10.7716

          k = 0.9338 0.7368 0.0000 ( 22023 PWs)   bands (ev):

   -71.0793 -57.1570 -44.0583 -44.0573 -44.0572 -44.0561 -44.0048 -44.0047
   -44.0036 -44.0032 -43.9858 -43.9837 -35.3126 -35.2038 -35.1608 -31.4173
   -31.1455 -31.0969 -11.3609 -10.6513  -9.9660  -9.7898  -2.8968  -1.6912
    -0.7593  -0.0291   0.3390   0.6163   0.7973   0.8085   1.6919   1.8765
     1.9190   2.5807   2.7795   3.0933   5.4199   5.5593   5.6354   5.7941
     5.9923   6.2683   6.3638   6.9622   8.6584   8.7713   9.4386   9.9069
    10.8529  11.3104

          k = 0.9338 0.8812 0.0000 ( 22058 PWs)   bands (ev):

   -71.0746 -57.1464 -44.0582 -44.0570 -44.0554 -44.0543 -44.0054 -44.0050
   -44.0041 -44.0035 -43.9849 -43.9827 -35.3018 -35.2943 -35.1872 -31.3926
   -31.2552 -31.1257 -10.7147 -10.0156  -9.7143  -9.4443  -2.4133  -1.6389
    -1.2310  -0.9030  -0.2413  -0.1375  -0.0018   0.7963   1.0696   1.4326
     2.0816   2.1900   2.2812   2.7146   5.0528   5.3305   5.5961   5.8409
     5.9565   6.3196   7.1273   7.3936   9.5188   9.6214  10.3154  10.7523
    11.2452  11.6618

          k = 0.9338 1.0255 0.0000 ( 22071 PWs)   bands (ev):

   -71.0702 -57.1365 -44.0582 -44.0569 -44.0537 -44.0526 -44.0061 -44.0053
   -44.0045 -44.0037 -43.9841 -43.9818 -35.3918 -35.2772 -35.2117 -31.3694
   -31.3558 -31.1524  -9.9999  -9.4807  -9.2641  -9.0405  -3.0208  -1.9488
    -1.7954  -1.4215  -1.1221  -0.4225  -0.3340   0.7291   1.0130   1.0573
     1.6423   2.0499   2.2169   3.0006   5.3918   5.5581   5.8143   5.9099
     6.6049   6.9235   7.4682   7.5104   8.9880  10.0336  10.5112  10.7341
    10.9436  11.4269

          k = 0.9338 1.1699 0.0000 ( 22045 PWs)   bands (ev):

   -71.0687 -57.1331 -44.0582 -44.0568 -44.0531 -44.0520 -44.0064 -44.0054
   -44.0046 -44.0037 -43.9838 -43.9815 -35.4223 -35.2713 -35.2201 -31.3899
   -31.3614 -31.1616  -9.7151  -9.3841  -8.9634  -8.8782  -3.3351  -2.3631
    -2.0972  -1.5923  -1.3270  -0.4906  -0.3729   0.6868   0.8624   1.1617
     1.4671   2.2318   2.3536   3.1757   5.6192   5.7210   6.0595   6.1348
     6.8880   7.1971   7.2735   7.5057   8.1487   9.2783  10.8133  10.8714
    11.2723  11.5405

          k = 0.9338 1.3142 0.0000 ( 22063 PWs)   bands (ev):

   -71.0710 -57.1382 -44.0582 -44.0569 -44.0540 -44.0529 -44.0060 -44.0053
   -44.0044 -44.0036 -43.9842 -43.9820 -35.3765 -35.2802 -35.2075 -31.3734
   -31.3387 -31.1479 -10.1329  -9.5314  -9.3978  -9.1162  -2.8743  -1.7819
    -1.6402  -1.4304  -0.9467  -0.4011  -0.3116   0.7657   1.0059   1.0970
     1.7255   2.0131   2.1818   2.9319   5.2850   5.4851   5.7572   5.8640
     6.4748   6.8160   7.4584   7.5062   9.3102  10.2243  10.3898  10.6583
    10.9907  11.3911

          k = 0.9338 1.4585 0.0000 ( 22013 PWs)   bands (ev):

   -71.0757 -57.1488 -44.0582 -44.0571 -44.0558 -44.0547 -44.0053 -44.0049
   -44.0040 -44.0034 -43.9851 -43.9830 -35.2985 -35.2798 -35.1812 -31.3982
   -31.2306 -31.1192 -10.8694 -10.1691  -9.7727  -9.5296  -2.4508  -1.5287
    -1.2690  -0.7069  -0.0604   0.0235   0.1753   0.7075   1.2070   1.5220
     2.1698   2.2154   2.4044   2.7331   5.0686   5.3459   5.5789   5.8165
     5.9121   6.1954   6.9849   7.3235   9.3185   9.4200  10.2778  10.6460
    11.2703  11.6464

          k = 0.9338 1.6029 0.0000 ( 22033 PWs)   bands (ev):

   -71.0800 -57.1587 -44.0583 -44.0576 -44.0572 -44.0564 -44.0047 -44.0047
   -44.0034 -44.0032 -43.9860 -43.9839 -35.3155 -35.1880 -35.1566 -31.4213
   -31.1278 -31.0923 -11.4563 -10.7437 -10.0059  -9.8375  -3.0048  -1.7945
    -0.5599   0.1227   0.2569   0.7753   0.9280   1.0042   1.6961   1.7983
     2.0943   2.6061   2.8165   3.1964   5.5243   5.5882   5.7069   5.9426
     6.0527   6.1855   6.4026   6.8586   8.5168   8.6330   9.1430   9.7547
    10.6703  11.1121

     Writing all to output data dir ./out/MOSE2_WS2.save/

     init_run     :      0.79s CPU      0.77s WALL (       1 calls)
     electrons    :     13.78s CPU     11.88s WALL (       1 calls)

     Called by init_run:
     wfcinit      :      0.01s CPU      0.01s WALL (       1 calls)
     potinit      :      0.04s CPU      0.05s WALL (       1 calls)
     hinit0       :      0.69s CPU      0.66s WALL (       1 calls)

     Called by electrons:
     c_bands      :     13.78s CPU     11.88s WALL (       1 calls)
     v_of_rho     :      0.02s CPU      0.02s WALL (       1 calls)

     Called by c_bands:
     init_us_2    :      0.00s CPU      0.00s WALL (       4 calls)
     init_us_2:cp :      0.00s CPU      0.00s WALL (       4 calls)
     cegterg      :     12.17s CPU      8.13s WALL (       9 calls)

     Called by *egterg:
     cdiaghg      :      1.90s CPU      1.50s WALL (     151 calls)
     h_psi        :      8.08s CPU      4.64s WALL (     160 calls)
     g_psi        :      0.01s CPU      0.01s WALL (     147 calls)

     Called by h_psi:
     h_psi:calbec :      1.32s CPU      0.70s WALL (     160 calls)
     vloc_psi     :      6.14s CPU      3.43s WALL (     160 calls)
     add_vuspsi   :      0.61s CPU      0.50s WALL (     160 calls)

     General routines
     calbec       :      1.32s CPU      0.70s WALL (     160 calls)
     fft          :      0.55s CPU      0.54s WALL (      11 calls)
     fftw         :      5.88s CPU      3.29s WALL (    6966 calls)
     davcio       :      0.00s CPU      0.01s WALL (       8 calls)

     Parallel routines

     PWSCF        :     15.06s CPU     13.43s WALL


   This run was terminated on:  10:34:10   4Jul2023            

=------------------------------------------------------------------------------=
   JOB DONE.
=------------------------------------------------------------------------------=
