
     Program PWSCF v.7.1 starts on  4Jul2023 at 10:26:19 

     This program is part of the open-source Quantum ESPRESSO suite
     for quantum simulation of materials; please cite
         "P. Giannozzi et al., J. Phys.:Condens. Matter 21 395502 (2009);
         "P. Giannozzi et al., J. Phys.:Condens. Matter 29 465901 (2017);
         "P. Giannozzi et al., J. Chem. Phys. 152 154105 (2020);
          URL http://www.quantum-espresso.org", 
     in publications or presentations arising from this work. More details at
     http://www.quantum-espresso.org/quote

     Parallel version (MPI & OpenMP), running on     640 processor cores
     Number of MPI processes:               320
     Threads/MPI process:                     2

     MPI processes distributed on    10 nodes
     481332 MiB available memory on the printing compute node when the environment starts

     Waiting for input...
     Reading input from standard input

     Current dimensions of program PWSCF are:
     Max number of different atomic species (ntypx) = 10
     Max number of k-points (npk) =  40000
     Max angular momentum in pseudopotentials (lmaxx) =  4

     Atomic positions and unit cell read from directory:
     ./out/MOSE2_WS2.save/
     Atomic positions from file used, from input discarded

     Message from routine setup:
     using ibrav=0 with symmetry is DISCOURAGED, use correct ibrav instead

     K-points division:     npool     =      16
     R & G space division:  proc/nbgrp/npool/nimage =      20
     Subspace diagonalization in iterative solution of the eigenvalue problem:
     a serial algorithm will be used

     Message from routine divide_et_impera:
     suboptimal parallelization: some nodes have no k-points

     Parallelization info
     --------------------
     sticks:   dense  smooth     PW     G-vecs:    dense   smooth      PW
     Min          46      46     13                 8798     8798    1373
     Max          47      47     14                 8831     8831    1401
     Sum         925     925    265               176313   176313   27863

     Using Slab Decomposition



     bravais-lattice index     =            0
     lattice parameter (alat)  =       6.1117  a.u.
     unit-cell volume          =    1528.2542 (a.u.)^3
     number of atoms/cell      =            6
     number of atomic types    =            4
     number of electrons       =        72.00
     number of Kohn-Sham states=           36
     kinetic-energy cutoff     =      90.0000  Ry
     charge density cutoff     =     360.0000  Ry
     Exchange-correlation= PBE
                           (   1   4   3   4   0   0   0)

     celldm(1)=   6.111715  celldm(2)=   0.000000  celldm(3)=   0.000000
     celldm(4)=   0.000000  celldm(5)=   0.000000  celldm(6)=   0.000000

     crystal axes: (cart. coord. in units of alat)
               a(1) = (   1.000000  -0.000000   0.000000 )  
               a(2) = (  -0.500000   0.866025   0.000000 )  
               a(3) = (   0.000000   0.000000   7.729934 )  

     reciprocal axes: (cart. coord. in units 2 pi/alat)
               b(1) = (  1.000000  0.577351 -0.000000 )  
               b(2) = (  0.000000  1.154701 -0.000000 )  
               b(3) = ( -0.000000 -0.000000  0.129367 )  


     PseudoPot. # 1 for Mo read from file:
     ./pseudo/Mo_ONCV_PBE_sr.upf
     MD5 check sum: 49ef1f739fd5ee11f4a56dc5f994b343
     Pseudo is Norm-conserving + core correction, Zval = 14.0
     Generated using ONCVPSP code by D. R. Hamann
     Using radial grid of 1640 points,  6 beta functions with: 
                l(1) =   0
                l(2) =   0
                l(3) =   1
                l(4) =   1
                l(5) =   2
                l(6) =   2

     PseudoPot. # 2 for S  read from file:
     ./pseudo/S_ONCV_PBE_sr.upf
     MD5 check sum: 0a7b1e3b8ed912888c590f2dcdc25257
     Pseudo is Norm-conserving + core correction, Zval =  6.0
     Generated using ONCVPSP code by D. R. Hamann
     Using radial grid of 1146 points,  6 beta functions with: 
                l(1) =   0
                l(2) =   0
                l(3) =   1
                l(4) =   1
                l(5) =   2
                l(6) =   2

     PseudoPot. # 3 for Se read from file:
     ./pseudo/Se_ONCV_PBE_sr.upf
     MD5 check sum: 0275729cb2f2a615607f5e2758d1d74e
     Pseudo is Norm-conserving + core correction, Zval = 16.0
     Generated using ONCVPSP code by D. R. Hamann
     Using radial grid of 1214 points,  6 beta functions with: 
                l(1) =   0
                l(2) =   0
                l(3) =   1
                l(4) =   1
                l(5) =   2
                l(6) =   2

     PseudoPot. # 4 for W  read from file:
     ./pseudo/W_ONCV_PBE_sr.upf
     MD5 check sum: ed1f8c5deb4c334b28f6f49839c97859
     Pseudo is Norm-conserving + core correction, Zval = 14.0
     Generated using ONCVPSP code by D. R. Hamann
     Using radial grid of 1396 points,  7 beta functions with: 
                l(1) =   0
                l(2) =   0
                l(3) =   1
                l(4) =   1
                l(5) =   2
                l(6) =   2
                l(7) =   3

     atomic species   valence    mass     pseudopotential
        Mo            14.00    95.96000     Mo( 1.00)
        S              6.00    32.06500     S ( 1.00)
        Se            16.00    78.96000     Se( 1.00)
        W             14.00   183.84000     W ( 1.00)

      6 Sym. Ops. (no inversion) found



   Cartesian axes

     site n.     atom                  positions (alat units)
         1           W   tau(   1) = (   0.0000000   0.0000000   2.8613115  )
         2           S   tau(   2) = (  -0.0000001   0.5773502   3.3403824  )
         3           S   tau(   3) = (  -0.0000001   0.5773502   2.3810191  )
         4           Mo  tau(   4) = (   0.0000000   0.0000000   4.8686957  )
         5           Se  tau(   5) = (   0.4999999   0.2886751   5.3935554  )
         6           Se  tau(   6) = (   0.4999999   0.2886751   4.3448389  )

     --------------------------------------------
     DFT-D3 Dispersion Correction (3-body terms):
     --------------------------------------------
       Reference C6 values for interpolation: 

         atom   Coordination number   C6
         S          0.000           268.01
         S          0.995           261.99
         S          1.990           251.62
         Se         0.000           427.35
         Se         0.990           427.57
         Se         1.981           421.05
         Mo         0.000          1691.79
         Mo         1.942          1004.01
         Mo        11.056           674.22
         W          0.000          1628.72
         W          1.929          1086.81
         W         10.915           796.19

       Values used:

         atom   Coordination number  R0_AB[au]  C6      C8
         W          9.339            3.766    796.19 128250.55
         S          3.633            3.128    251.62  12327.25
         S          3.565            3.128    251.62  12327.25
         Mo         9.571            3.547    674.22  77634.20
         Se         4.240            3.332    421.05  29958.36
         Se         4.312            3.332    421.05  29958.36

         Molecular C6 ( Ry / a.u.^6 ) =     16099.11


     number of k points=     6
                       cart. coord. in units 2pi/alat
        k(    1) = (   0.0010000   0.0005774   0.0000000), wk =   0.2222222
        k(    2) = (   0.0010000   0.3854776   0.0000000), wk =   0.4444444
        k(    3) = (   0.0010000   0.7703778   0.0000000), wk =   0.4444444
        k(    4) = (   0.3343333   0.1930275   0.0000000), wk =   0.2222222
        k(    5) = (   0.3343333   0.5779278   0.0000000), wk =   0.4444444
        k(    6) = (   0.6676667   0.3854777   0.0000000), wk =   0.2222222

     Dense  grid:   176313 G-vectors     FFT dimensions: (  40,  40, 288)

     Estimated max dynamical RAM per process >      23.41 MB

     Estimated total dynamical RAM >       7.32 GB

     The potential is recalculated from file :
     ./out/MOSE2_WS2.save/charge-density

     Starting wfcs are   46 randomized atomic wfcs

     Band Structure Calculation
     Davidson diagonalization with overlap

     ethr =  1.39E-13,  avg # of iterations = 27.3

     total cpu time spent up to now is        3.7 secs

     End of band structure calculation

          k = 0.0010 0.0006 0.0000 ( 22049 PWs)   bands (ev):

   -71.0820 -57.1631 -44.0584 -44.0584 -44.0572 -44.0572 -44.0046 -44.0045
   -44.0031 -44.0031 -43.9863 -43.9843 -35.3231 -35.1461 -35.1461 -31.4315
   -31.0809 -31.0809 -11.6962 -10.9743 -10.1108  -9.9517  -3.2861  -2.0685
     0.0352   0.0353   0.6672   1.2003   1.2003   1.5807   1.5807   1.6748
     2.5467   2.5467   2.8505   3.4451

          k = 0.0010 0.3855 0.0000 ( 22052 PWs)   bands (ev):

   -71.0721 -57.1408 -44.0583 -44.0571 -44.0543 -44.0532 -44.0058 -44.0051
   -44.0044 -44.0036 -43.9844 -43.9822 -35.3581 -35.2846 -35.1962 -31.3794
   -31.3181 -31.1354 -10.3234  -9.6405  -9.5529  -9.2255  -2.7425  -1.6718
    -1.4584  -1.4115  -0.7281  -0.4042  -0.1699   1.0213   1.1318   1.1893
     1.6552   1.9271   2.4626   2.7118

          k = 0.0010 0.7704 0.0000 ( 22050 PWs)   bands (ev):

   -71.0722 -57.1409 -44.0583 -44.0571 -44.0543 -44.0532 -44.0058 -44.0051
   -44.0044 -44.0036 -43.9844 -43.9822 -35.3573 -35.2847 -35.1960 -31.3796
   -31.3173 -31.1352 -10.3293  -9.6452  -9.5563  -9.2288  -2.7363  -1.6692
    -1.4552  -1.4055  -0.7198  -0.4043  -0.1662   1.0240   1.1347   1.1864
     1.6582   1.9289   2.4625   2.7081

          k = 0.3343 0.1930 0.0000 ( 22052 PWs)   bands (ev):

   -71.0721 -57.1408 -44.0583 -44.0571 -44.0543 -44.0532 -44.0058 -44.0051
   -44.0044 -44.0036 -43.9844 -43.9822 -35.3584 -35.2845 -35.1963 -31.3793
   -31.3186 -31.1355 -10.3204  -9.6382  -9.5511  -9.2238  -2.7456  -1.6731
    -1.4601  -1.4144  -0.7322  -0.4041  -0.1718   1.0200   1.1303   1.1909
     1.6537   1.9262   2.4628   2.7135

          k = 0.3343 0.5779 0.0000 ( 21963 PWs)   bands (ev):

   -71.0672 -57.1297 -44.0556 -44.0550 -44.0541 -44.0539 -44.0064 -44.0058
   -44.0046 -44.0038 -43.9835 -43.9812 -35.3569 -35.3270 -35.2654 -31.3534
   -31.3170 -31.2809  -9.4481  -9.2503  -8.7021  -8.6805  -2.6706  -2.3320
    -1.7436  -1.4541  -1.2497  -0.9770  -0.6116  -0.2426   0.1066   0.3279
     0.6779   1.1714   2.9846   3.6021

          k = 0.6677 0.3855 0.0000 ( 22052 PWs)   bands (ev):

   -71.0722 -57.1409 -44.0583 -44.0571 -44.0543 -44.0532 -44.0058 -44.0051
   -44.0044 -44.0036 -43.9844 -43.9822 -35.3569 -35.2848 -35.1959 -31.3797
   -31.3169 -31.1351 -10.3322  -9.6476  -9.5580  -9.2305  -2.7332  -1.6680
    -1.4536  -1.4025  -0.7156  -0.4044  -0.1643   1.0253   1.1361   1.1851
     1.6596   1.9298   2.4625   2.7061

     Writing all to output data dir ./out/MOSE2_WS2.save/

     init_run     :      1.15s CPU      2.02s WALL (       1 calls)
     electrons    :      1.84s CPU      1.32s WALL (       1 calls)

     Called by init_run:
     wfcinit      :      0.01s CPU      0.01s WALL (       1 calls)
     potinit      :      0.40s CPU      1.30s WALL (       1 calls)
     hinit0       :      0.69s CPU      0.66s WALL (       1 calls)

     Called by electrons:
     c_bands      :      1.83s CPU      1.31s WALL (       1 calls)
     v_of_rho     :      0.03s CPU      0.02s WALL (       1 calls)

     Called by c_bands:
     init_us_2    :      0.00s CPU      0.00s WALL (       1 calls)
     init_us_2:cp :      0.00s CPU      0.00s WALL (       1 calls)
     cegterg      :      1.68s CPU      1.06s WALL (       2 calls)

     Called by *egterg:
     cdiaghg      :      0.12s CPU      0.10s WALL (      24 calls)
     h_psi        :      1.29s CPU      0.73s WALL (      26 calls)
     g_psi        :      0.00s CPU      0.00s WALL (      23 calls)

     Called by h_psi:
     h_psi:calbec :      0.24s CPU      0.12s WALL (      26 calls)
     vloc_psi     :      0.93s CPU      0.52s WALL (      26 calls)
     add_vuspsi   :      0.12s CPU      0.09s WALL (      26 calls)

     General routines
     calbec       :      0.24s CPU      0.12s WALL (      26 calls)
     fft          :      0.56s CPU      0.54s WALL (      11 calls)
     fftw         :      0.89s CPU      0.49s WALL (    1262 calls)
     davcio       :      0.00s CPU      0.00s WALL (       2 calls)

     Parallel routines

     PWSCF        :      3.20s CPU      3.75s WALL


   This run was terminated on:  10:26:23   4Jul2023            

=------------------------------------------------------------------------------=
   JOB DONE.
=------------------------------------------------------------------------------=
