
     Program PWSCF v.7.1 starts on  4Jul2023 at 10:41:29 

     This program is part of the open-source Quantum ESPRESSO suite
     for quantum simulation of materials; please cite
         "P. Giannozzi et al., J. Phys.:Condens. Matter 21 395502 (2009);
         "P. Giannozzi et al., J. Phys.:Condens. Matter 29 465901 (2017);
         "P. Giannozzi et al., J. Chem. Phys. 152 154105 (2020);
          URL http://www.quantum-espresso.org", 
     in publications or presentations arising from this work. More details at
     http://www.quantum-espresso.org/quote

     Parallel version (MPI & OpenMP), running on     640 processor cores
     Number of MPI processes:               320
     Threads/MPI process:                     2

     MPI processes distributed on    10 nodes
     488047 MiB available memory on the printing compute node when the environment starts

     Waiting for input...
     Reading input from standard input

     Current dimensions of program PWSCF are:
     Max number of different atomic species (ntypx) = 10
     Max number of k-points (npk) =  40000
     Max angular momentum in pseudopotentials (lmaxx) =  4

     Atomic positions and unit cell read from directory:
     ./out/MOSE2_WS2.save/
     Atomic positions from file used, from input discarded

     Message from routine setup:
     using ibrav=0 with symmetry is DISCOURAGED, use correct ibrav instead

     K-points division:     npool     =      16
     R & G space division:  proc/nbgrp/npool/nimage =      20
     Subspace diagonalization in iterative solution of the eigenvalue problem:
     a serial algorithm will be used


     Parallelization info
     --------------------
     sticks:   dense  smooth     PW     G-vecs:    dense   smooth      PW
     Min          46      46     16                 8798     8798    1898
     Max          47      47     18                 8831     8831    1913
     Sum         925     925    337               176313   176313   38079

     Using Slab Decomposition



     bravais-lattice index     =            0
     lattice parameter (alat)  =       6.1117  a.u.
     unit-cell volume          =    1528.2542 (a.u.)^3
     number of atoms/cell      =            6
     number of atomic types    =            4
     number of electrons       =        72.00
     number of Kohn-Sham states=           36
     kinetic-energy cutoff     =      90.0000  Ry
     charge density cutoff     =     360.0000  Ry
     Exchange-correlation= PBE
                           (   1   4   3   4   0   0   0)

     celldm(1)=   6.111715  celldm(2)=   0.000000  celldm(3)=   0.000000
     celldm(4)=   0.000000  celldm(5)=   0.000000  celldm(6)=   0.000000

     crystal axes: (cart. coord. in units of alat)
               a(1) = (   1.000000  -0.000000   0.000000 )  
               a(2) = (  -0.500000   0.866025   0.000000 )  
               a(3) = (   0.000000   0.000000   7.729934 )  

     reciprocal axes: (cart. coord. in units 2 pi/alat)
               b(1) = (  1.000000  0.577351 -0.000000 )  
               b(2) = (  0.000000  1.154701 -0.000000 )  
               b(3) = ( -0.000000 -0.000000  0.129367 )  


     PseudoPot. # 1 for Mo read from file:
     ./pseudo/Mo_ONCV_PBE_sr.upf
     MD5 check sum: 49ef1f739fd5ee11f4a56dc5f994b343
     Pseudo is Norm-conserving + core correction, Zval = 14.0
     Generated using ONCVPSP code by D. R. Hamann
     Using radial grid of 1640 points,  6 beta functions with: 
                l(1) =   0
                l(2) =   0
                l(3) =   1
                l(4) =   1
                l(5) =   2
                l(6) =   2

     PseudoPot. # 2 for S  read from file:
     ./pseudo/S_ONCV_PBE_sr.upf
     MD5 check sum: 0a7b1e3b8ed912888c590f2dcdc25257
     Pseudo is Norm-conserving + core correction, Zval =  6.0
     Generated using ONCVPSP code by D. R. Hamann
     Using radial grid of 1146 points,  6 beta functions with: 
                l(1) =   0
                l(2) =   0
                l(3) =   1
                l(4) =   1
                l(5) =   2
                l(6) =   2

     PseudoPot. # 3 for Se read from file:
     ./pseudo/Se_ONCV_PBE_sr.upf
     MD5 check sum: 0275729cb2f2a615607f5e2758d1d74e
     Pseudo is Norm-conserving + core correction, Zval = 16.0
     Generated using ONCVPSP code by D. R. Hamann
     Using radial grid of 1214 points,  6 beta functions with: 
                l(1) =   0
                l(2) =   0
                l(3) =   1
                l(4) =   1
                l(5) =   2
                l(6) =   2

     PseudoPot. # 4 for W  read from file:
     ./pseudo/W_ONCV_PBE_sr.upf
     MD5 check sum: ed1f8c5deb4c334b28f6f49839c97859
     Pseudo is Norm-conserving + core correction, Zval = 14.0
     Generated using ONCVPSP code by D. R. Hamann
     Using radial grid of 1396 points,  7 beta functions with: 
                l(1) =   0
                l(2) =   0
                l(3) =   1
                l(4) =   1
                l(5) =   2
                l(6) =   2
                l(7) =   3

     atomic species   valence    mass     pseudopotential
        Mo            14.00    95.96000     Mo( 1.00)
        S              6.00    32.06500     S ( 1.00)
        Se            16.00    78.96000     Se( 1.00)
        W             14.00   183.84000     W ( 1.00)

      6 Sym. Ops. (no inversion) found



   Cartesian axes

     site n.     atom                  positions (alat units)
         1           W   tau(   1) = (   0.0000000   0.0000000   2.8613115  )
         2           S   tau(   2) = (  -0.0000001   0.5773502   3.3403824  )
         3           S   tau(   3) = (  -0.0000001   0.5773502   2.3810191  )
         4           Mo  tau(   4) = (   0.0000000   0.0000000   4.8686957  )
         5           Se  tau(   5) = (   0.4999999   0.2886751   5.3935554  )
         6           Se  tau(   6) = (   0.4999999   0.2886751   4.3448389  )

     --------------------------------------------
     DFT-D3 Dispersion Correction (3-body terms):
     --------------------------------------------
       Reference C6 values for interpolation: 

         atom   Coordination number   C6
         S          0.000           268.01
         S          0.995           261.99
         S          1.990           251.62
         Se         0.000           427.35
         Se         0.990           427.57
         Se         1.981           421.05
         Mo         0.000          1691.79
         Mo         1.942          1004.01
         Mo        11.056           674.22
         W          0.000          1628.72
         W          1.929          1086.81
         W         10.915           796.19

       Values used:

         atom   Coordination number  R0_AB[au]  C6      C8
         W          9.339            3.766    796.19 128250.55
         S          3.633            3.128    251.62  12327.25
         S          3.565            3.128    251.62  12327.25
         Mo         9.571            3.547    674.22  77634.20
         Se         4.240            3.332    421.05  29958.36
         Se         4.312            3.332    421.05  29958.36

         Molecular C6 ( Ry / a.u.^6 ) =     16099.11


     number of k points=    64
                       cart. coord. in units 2pi/alat
        k(    1) = (   0.0600000   0.0894893   0.0000000), wk =   0.0312500
        k(    2) = (   0.0600000   0.2338269   0.0000000), wk =   0.0312500
        k(    3) = (   0.0600000   0.3781645   0.0000000), wk =   0.0312500
        k(    4) = (   0.0600000   0.5225021   0.0000000), wk =   0.0312500
        k(    5) = (   0.0600000   0.6668397   0.0000000), wk =   0.0312500
        k(    6) = (   0.0600000   0.8111772   0.0000000), wk =   0.0312500
        k(    7) = (   0.0600000   0.9555148   0.0000000), wk =   0.0312500
        k(    8) = (   0.0600000   1.0998524   0.0000000), wk =   0.0312500
        k(    9) = (   0.1850000   0.1616581   0.0000000), wk =   0.0312500
        k(   10) = (   0.1850000   0.3059957   0.0000000), wk =   0.0312500
        k(   11) = (   0.1850000   0.4503333   0.0000000), wk =   0.0312500
        k(   12) = (   0.1850000   0.5946709   0.0000000), wk =   0.0312500
        k(   13) = (   0.1850000   0.7390085   0.0000000), wk =   0.0312500
        k(   14) = (   0.1850000   0.8833461   0.0000000), wk =   0.0312500
        k(   15) = (   0.1850000   1.0276836   0.0000000), wk =   0.0312500
        k(   16) = (   0.1850000   1.1720212   0.0000000), wk =   0.0312500
        k(   17) = (   0.3100000   0.2338269   0.0000000), wk =   0.0312500
        k(   18) = (   0.3100000   0.3781645   0.0000000), wk =   0.0312500
        k(   19) = (   0.3100000   0.5225021   0.0000000), wk =   0.0312500
        k(   20) = (   0.3100000   0.6668397   0.0000000), wk =   0.0312500
        k(   21) = (   0.3100000   0.8111773   0.0000000), wk =   0.0312500
        k(   22) = (   0.3100000   0.9555149   0.0000000), wk =   0.0312500
        k(   23) = (   0.3100000   1.0998525   0.0000000), wk =   0.0312500
        k(   24) = (   0.3100000   1.2441900   0.0000000), wk =   0.0312500
        k(   25) = (   0.4350000   0.3059958   0.0000000), wk =   0.0312500
        k(   26) = (   0.4350000   0.4503333   0.0000000), wk =   0.0312500
        k(   27) = (   0.4350000   0.5946709   0.0000000), wk =   0.0312500
        k(   28) = (   0.4350000   0.7390085   0.0000000), wk =   0.0312500
        k(   29) = (   0.4350000   0.8833461   0.0000000), wk =   0.0312500
        k(   30) = (   0.4350000   1.0276837   0.0000000), wk =   0.0312500
        k(   31) = (   0.4350000   1.1720213   0.0000000), wk =   0.0312500
        k(   32) = (   0.4350000   1.3163589   0.0000000), wk =   0.0312500
        k(   33) = (   0.5600000   0.3781646   0.0000000), wk =   0.0312500
        k(   34) = (   0.5600000   0.5225022   0.0000000), wk =   0.0312500
        k(   35) = (   0.5600000   0.6668397   0.0000000), wk =   0.0312500
        k(   36) = (   0.5600000   0.8111773   0.0000000), wk =   0.0312500
        k(   37) = (   0.5600000   0.9555149   0.0000000), wk =   0.0312500
        k(   38) = (   0.5600000   1.0998525   0.0000000), wk =   0.0312500
        k(   39) = (   0.5600000   1.2441901   0.0000000), wk =   0.0312500
        k(   40) = (   0.5600000   1.3885277   0.0000000), wk =   0.0312500
        k(   41) = (   0.6850000   0.4503334   0.0000000), wk =   0.0312500
        k(   42) = (   0.6850000   0.5946710   0.0000000), wk =   0.0312500
        k(   43) = (   0.6850000   0.7390086   0.0000000), wk =   0.0312500
        k(   44) = (   0.6850000   0.8833461   0.0000000), wk =   0.0312500
        k(   45) = (   0.6850000   1.0276837   0.0000000), wk =   0.0312500
        k(   46) = (   0.6850000   1.1720213   0.0000000), wk =   0.0312500
        k(   47) = (   0.6850000   1.3163589   0.0000000), wk =   0.0312500
        k(   48) = (   0.6850000   1.4606965   0.0000000), wk =   0.0312500
        k(   49) = (   0.8100000   0.5225022   0.0000000), wk =   0.0312500
        k(   50) = (   0.8100000   0.6668398   0.0000000), wk =   0.0312500
        k(   51) = (   0.8100000   0.8111774   0.0000000), wk =   0.0312500
        k(   52) = (   0.8100000   0.9555150   0.0000000), wk =   0.0312500
        k(   53) = (   0.8100000   1.0998525   0.0000000), wk =   0.0312500
        k(   54) = (   0.8100000   1.2441901   0.0000000), wk =   0.0312500
        k(   55) = (   0.8100000   1.3885277   0.0000000), wk =   0.0312500
        k(   56) = (   0.8100000   1.5328653   0.0000000), wk =   0.0312500
        k(   57) = (   0.9350000   0.5946710   0.0000000), wk =   0.0312500
        k(   58) = (   0.9350000   0.7390086   0.0000000), wk =   0.0312500
        k(   59) = (   0.9350000   0.8833462   0.0000000), wk =   0.0312500
        k(   60) = (   0.9350000   1.0276838   0.0000000), wk =   0.0312500
        k(   61) = (   0.9350000   1.1720214   0.0000000), wk =   0.0312500
        k(   62) = (   0.9350000   1.3163590   0.0000000), wk =   0.0312500
        k(   63) = (   0.9350000   1.4606965   0.0000000), wk =   0.0312500
        k(   64) = (   0.9350000   1.6050341   0.0000000), wk =   0.0312500

     Dense  grid:   176313 G-vectors     FFT dimensions: (  40,  40, 288)

     Estimated max dynamical RAM per process >      23.41 MB

     Estimated total dynamical RAM >       7.32 GB

     The potential is recalculated from file :
     ./out/MOSE2_WS2.save/charge-density

     Starting wfcs are   46 randomized atomic wfcs

     Band Structure Calculation
     Davidson diagonalization with overlap

     ethr =  1.39E-13,  avg # of iterations = 27.6

     total cpu time spent up to now is        7.0 secs

     End of band structure calculation

          k = 0.0600 0.0895 0.0000 ( 22007 PWs)   bands (ev):

   -71.0809 -57.1606 -44.0583 -44.0579 -44.0572 -44.0568 -44.0047 -44.0046
   -44.0033 -44.0032 -43.9861 -43.9841 -35.3188 -35.1699 -35.1519 -31.4257
   -31.1076 -31.0872 -11.5624 -10.8459 -10.0514  -9.8890  -3.1278  -1.9135
    -0.3158   0.1615   0.3187   0.9677   1.0659   1.2456   1.6800   1.7056
     2.3047   2.5990   2.8412   3.3115

          k = 0.0600 0.2338 0.0000 ( 22010 PWs)   bands (ev):

   -71.0771 -57.1520 -44.0582 -44.0571 -44.0564 -44.0553 -44.0051 -44.0048
   -44.0039 -44.0033 -43.9854 -43.9833 -35.3040 -35.2506 -35.1729 -31.4057
   -31.1978 -31.1101 -11.0680 -10.3652  -9.8489  -9.6372  -2.5976  -1.4180
    -1.2647  -0.4539   0.2378   0.2530   0.4229   0.5787   1.4536   1.6217
     2.0968   2.3676   2.5630   2.8293

          k = 0.0600 0.3782 0.0000 ( 22060 PWs)   bands (ev):

   -71.0722 -57.1409 -44.0582 -44.0570 -44.0544 -44.0533 -44.0058 -44.0052
   -44.0044 -44.0036 -43.9844 -43.9822 -35.3530 -35.2848 -35.2000 -31.3797
   -31.3124 -31.1397 -10.3332  -9.6485  -9.5576  -9.2301  -2.6739  -1.6442
    -1.4396  -1.3653  -0.6713  -0.3936  -0.2339   0.8725   0.9841   1.1935
     1.8207   2.0128   2.2086   2.8235

          k = 0.0600 0.5225 0.0000 ( 22063 PWs)   bands (ev):

   -71.0690 -57.1338 -44.0582 -44.0569 -44.0532 -44.0521 -44.0063 -44.0054
   -44.0046 -44.0037 -43.9838 -43.9815 -35.4176 -35.2725 -35.2173 -31.3847
   -31.3629 -31.1585  -9.7710  -9.4032  -9.0230  -8.9107  -3.2892  -2.2950
    -2.0369  -1.5363  -1.3138  -0.4761  -0.3692   0.7085   0.8875   1.1904
     1.4952   2.1780   2.3731   3.1247

          k = 0.0600 0.6668 0.0000 ( 22071 PWs)   bands (ev):

   -71.0695 -57.1348 -44.0582 -44.0569 -44.0534 -44.0523 -44.0062 -44.0054
   -44.0045 -44.0037 -43.9839 -43.9816 -35.4081 -35.2743 -35.2148 -31.3741
   -31.3654 -31.1557  -9.8604  -9.4329  -9.1181  -8.9616  -3.1900  -2.1614
    -1.9453  -1.4622  -1.2684  -0.4513  -0.3570   0.7224   0.9348   1.1523
     1.5458   2.1115   2.3261   3.0689

          k = 0.0600 0.8112 0.0000 ( 22054 PWs)   bands (ev):

   -71.0733 -57.1435 -44.0582 -44.0570 -44.0549 -44.0538 -44.0056 -44.0051
   -44.0043 -44.0035 -43.9847 -43.9825 -35.3298 -35.2892 -35.1938 -31.3856
   -31.2865 -31.1330 -10.5134  -9.8160  -9.6378  -9.3318  -2.5105  -1.6568
    -1.3084  -1.1534  -0.4121  -0.3696  -0.1386   0.9130   0.9673   1.2971
     1.9255   2.0929   2.2260   2.7466

          k = 0.0600 0.9555 0.0000 ( 22001 PWs)   bands (ev):

   -71.0782 -57.1546 -44.0583 -44.0572 -44.0568 -44.0557 -44.0049 -44.0048
   -44.0037 -44.0033 -43.9856 -43.9835 -35.3084 -35.2269 -35.1667 -31.4116
   -31.1714 -31.1034 -11.2192 -10.5133  -9.9084  -9.7171  -2.7443  -1.5478
    -1.0256  -0.2434   0.4222   0.4637   0.5181   0.6187   1.6171   1.7322
     1.9921   2.4875   2.6883   2.9511

          k = 0.0600 1.0999 0.0000 ( 22017 PWs)   bands (ev):

   -71.0813 -57.1617 -44.0583 -44.0581 -44.0572 -44.0570 -44.0046 -44.0046
   -44.0032 -44.0031 -43.9862 -43.9842 -35.3206 -35.1599 -35.1494 -31.4282
   -31.0964 -31.0845 -11.6195 -10.9008 -10.0765  -9.9161  -3.1950  -1.9791
    -0.1727   0.1086   0.4461   1.0746   1.1337   1.3839   1.6530   1.6698
     2.4185   2.5781   2.8482   3.3711

          k = 0.1850 0.1617 0.0000 ( 22011 PWs)   bands (ev):

   -71.0769 -57.1517 -44.0583 -44.0571 -44.0563 -44.0552 -44.0051 -44.0048
   -44.0039 -44.0033 -43.9854 -43.9832 -35.3034 -35.2543 -35.1731 -31.4049
   -31.2020 -31.1103 -11.0477 -10.3452  -9.8411  -9.6264  -2.5837  -1.4096
    -1.2910  -0.4999   0.2014   0.2660   0.3820   0.6057   1.4593   1.6116
     2.1286   2.3133   2.5186   2.8080

          k = 0.1850 0.3060 0.0000 ( 22017 PWs)   bands (ev):

   -71.0729 -57.1426 -44.0578 -44.0567 -44.0551 -44.0540 -44.0056 -44.0052
   -44.0042 -44.0036 -43.9846 -43.9824 -35.3243 -35.2877 -35.2093 -31.3837
   -31.2802 -31.1503 -10.4580  -9.7637  -9.6119  -9.2983  -2.3511  -1.6585
    -1.2214  -1.1045  -0.5383  -0.2683  -0.1659   0.3861   0.5285   1.5129
     1.7035   2.1209   2.3309   2.8796

          k = 0.1850 0.4503 0.0000 ( 22057 PWs)   bands (ev):

   -71.0692 -57.1342 -44.0573 -44.0560 -44.0541 -44.0530 -44.0061 -44.0056
   -44.0043 -44.0038 -43.9839 -43.9816 -35.3808 -35.2732 -35.2503 -31.3640
   -31.3433 -31.1957  -9.8242  -9.4028  -9.0871  -8.9293  -2.7730  -2.0879
    -1.7176  -1.3296  -1.1561  -0.5277  -0.1586   0.0203   0.2689   1.0020
     1.1269   1.7211   2.3169   3.1435

          k = 0.1850 0.5947 0.0000 ( 22021 PWs)   bands (ev):

   -71.0680 -57.1314 -44.0571 -44.0558 -44.0538 -44.0527 -44.0063 -44.0058
   -44.0044 -44.0039 -43.9837 -43.9814 -35.3984 -35.2684 -35.2649 -31.3629
   -31.3574 -31.2119  -9.5862  -9.3171  -8.8348  -8.7866  -2.9301  -2.3955
    -1.9590  -1.6210  -1.2529  -0.4256  -0.2553  -0.0797   0.3710   0.8494
     0.9515   1.4007   2.5826   3.3688

          k = 0.1850 0.7390 0.0000 ( 22047 PWs)   bands (ev):

   -71.0699 -57.1359 -44.0574 -44.0562 -44.0543 -44.0532 -44.0060 -44.0055
   -44.0043 -44.0038 -43.9840 -43.9818 -35.3701 -35.2761 -35.2418 -31.3678
   -31.3313 -31.1863  -9.9577  -9.4525  -9.2257  -9.0080  -2.6799  -1.9054
    -1.6003  -1.3088  -0.9996  -0.5560  -0.1457   0.1100   0.2464   1.0964
     1.2441   1.8754   2.2290   3.0637

          k = 0.1850 0.8833 0.0000 ( 22021 PWs)   bands (ev):

   -71.0740 -57.1450 -44.0580 -44.0568 -44.0554 -44.0543 -44.0055 -44.0051
   -44.0041 -44.0036 -43.9848 -43.9826 -35.3074 -35.2918 -35.1989 -31.3891
   -31.2614 -31.1388 -10.6176  -9.9201  -9.6757  -9.3890  -2.3191  -1.6784
    -1.1707  -0.9164  -0.4179  -0.2353   0.0089   0.5792   0.6215   1.5702
     1.8841   2.1522   2.4203   2.8245

          k = 0.1850 1.0277 0.0000 ( 21990 PWs)   bands (ev):

   -71.0777 -57.1534 -44.0583 -44.0572 -44.0566 -44.0555 -44.0050 -44.0048
   -44.0038 -44.0033 -43.9855 -43.9834 -35.3063 -35.2397 -35.1683 -31.4088
   -31.1857 -31.1050 -11.1472 -10.4428  -9.8800  -9.6794  -2.6782  -1.4869
    -1.1512  -0.3896   0.3670   0.4438   0.4889   0.5430   1.5090   1.7977
     2.0799   2.3085   2.5824   2.8760

          k = 0.1850 1.1720 0.0000 ( 21999 PWs)   bands (ev):

   -71.0789 -57.1561 -44.0583 -44.0572 -44.0571 -44.0560 -44.0049 -44.0047
   -44.0036 -44.0033 -43.9857 -43.9836 -35.3111 -35.2118 -35.1632 -31.4153
   -31.1545 -31.0995 -11.3107 -10.6025  -9.9453  -9.7643  -2.8408  -1.6382
    -0.8565  -0.0957   0.3780   0.5208   0.7001   0.7484   1.6951   1.8074
     1.9152   2.5715   2.7607   3.0431

          k = 0.3100 0.2338 0.0000 ( 22066 PWs)   bands (ev):

   -71.0720 -57.1406 -44.0582 -44.0570 -44.0543 -44.0532 -44.0058 -44.0051
   -44.0044 -44.0036 -43.9844 -43.9822 -35.3577 -35.2842 -35.1994 -31.3788
   -31.3177 -31.1389 -10.3067  -9.6276  -9.5423  -9.2155  -2.7226  -1.6611
    -1.4624  -1.4046  -0.7248  -0.3961  -0.2252   0.9180   1.0576   1.1540
     1.7573   1.9809   2.2851   2.8095

          k = 0.3100 0.3782 0.0000 ( 22039 PWs)   bands (ev):

   -71.0692 -57.1342 -44.0574 -44.0561 -44.0540 -44.0529 -44.0061 -44.0056
   -44.0043 -44.0038 -43.9839 -43.9816 -35.3843 -35.2732 -35.2469 -31.3639
   -31.3472 -31.1920  -9.8208  -9.4031  -9.0829  -8.9283  -2.8223  -2.0847
    -1.7703  -1.3497  -1.1738  -0.5212  -0.1844   0.1117   0.3079   1.0558
     1.1715   1.7009   2.3140   3.1489

          k = 0.3100 0.5225 0.0000 ( 21981 PWs)   bands (ev):

   -71.0674 -57.1301 -44.0560 -44.0549 -44.0544 -44.0535 -44.0064 -44.0058
   -44.0046 -44.0038 -43.9836 -43.9813 -35.3676 -35.3113 -35.2661 -31.3544
   -31.3285 -31.2638  -9.4843  -9.2658  -8.7341  -8.7109  -2.6123  -2.4624
    -1.6970  -1.4354  -1.3038  -0.8857  -0.3827  -0.2980   0.1314   0.2983
     0.7432   1.2502   2.8581   3.5248

          k = 0.3100 0.6668 0.0000 ( 21989 PWs)   bands (ev):

   -71.0677 -57.1307 -44.0563 -44.0551 -44.0543 -44.0533 -44.0063 -44.0058
   -44.0045 -44.0038 -43.9836 -43.9813 -35.3748 -35.2970 -35.2672 -31.3558
   -31.3365 -31.2479  -9.5352  -9.2872  -8.7850  -8.7472  -2.5796  -2.5269
    -1.6380  -1.5558  -1.2079  -0.7535  -0.3613  -0.2036   0.2102   0.2695
     0.8213   1.3464   2.7227   3.4354

          k = 0.3100 0.8112 0.0000 ( 22052 PWs)   bands (ev):

   -71.0698 -57.1357 -44.0577 -44.0564 -44.0540 -44.0529 -44.0061 -44.0055
   -44.0043 -44.0038 -43.9840 -43.9817 -35.3817 -35.2757 -35.2325 -31.3673
   -31.3444 -31.1758  -9.9359  -9.4487  -9.2015  -8.9981  -2.8391  -1.9219
    -1.7573  -1.3535  -1.0947  -0.5181  -0.2299   0.3768   0.4188   1.1245
     1.4846   1.7772   2.2173   3.0817

          k = 0.3100 0.9555 0.0000 ( 22063 PWs)   bands (ev):

   -71.0727 -57.1420 -44.0583 -44.0571 -44.0545 -44.0534 -44.0057 -44.0051
   -44.0044 -44.0035 -43.9845 -43.9823 -35.3464 -35.2867 -35.1938 -31.3822
   -31.3051 -31.1328 -10.4111  -9.7172  -9.5968  -9.2749  -2.6488  -1.6513
    -1.4058  -1.3076  -0.6001  -0.4018  -0.1218   1.0542   1.1040   1.1945
     1.7210   1.9678   2.4311   2.6800

          k = 0.3100 1.0999 0.0000 ( 22027 PWs)   bands (ev):

   -71.0745 -57.1461 -44.0581 -44.0569 -44.0555 -44.0544 -44.0054 -44.0050
   -44.0041 -44.0035 -43.9849 -43.9827 -35.3008 -35.2937 -35.1924 -31.3918
   -31.2540 -31.1315 -10.6923  -9.9938  -9.7049  -9.4312  -2.3576  -1.6526
    -1.1961  -0.8641  -0.2778  -0.2087   0.0231   0.6922   0.8091   1.5392
     2.0205   2.1563   2.3957   2.7819

          k = 0.3100 1.2442 0.0000 ( 22056 PWs)   bands (ev):

   -71.0742 -57.1455 -44.0582 -44.0570 -44.0553 -44.0542 -44.0055 -44.0050
   -44.0042 -44.0035 -43.9848 -43.9826 -35.3093 -35.2927 -35.1907 -31.3904
   -31.2636 -31.1296 -10.6518  -9.9532  -9.6903  -9.4091  -2.4077  -1.6595
    -1.2273  -0.9648  -0.2870  -0.2159  -0.0715   0.7924   0.9561   1.4285
     2.0645   2.1392   2.2646   2.7450

          k = 0.4350 0.3060 0.0000 ( 22050 PWs)   bands (ev):

   -71.0690 -57.1337 -44.0583 -44.0569 -44.0531 -44.0520 -44.0063 -44.0054
   -44.0046 -44.0037 -43.9838 -43.9815 -35.4201 -35.2724 -35.2154 -31.3875
   -31.3628 -31.1564  -9.7646  -9.4024  -9.0155  -8.9079  -3.3232  -2.3331
    -2.0361  -1.5509  -1.3226  -0.4765  -0.3798   0.7399   0.8717   1.2916
     1.4818   2.1579   2.4829   3.1007

          k = 0.4350 0.4503 0.0000 ( 22028 PWs)   bands (ev):

   -71.0681 -57.1317 -44.0573 -44.0559 -44.0537 -44.0526 -44.0063 -44.0058
   -44.0044 -44.0039 -43.9837 -43.9814 -35.4014 -35.2689 -35.2586 -31.3663
   -31.3580 -31.2048  -9.6078  -9.3273  -8.8568  -8.8015  -2.9831  -2.3536
    -2.0090  -1.6066  -1.2585  -0.4424  -0.2629   0.0558   0.3927   0.8676
     1.0988   1.4256   2.5403   3.3436

          k = 0.4350 0.5947 0.0000 ( 21985 PWs)   bands (ev):

   -71.0678 -57.1310 -44.0564 -44.0552 -44.0543 -44.0533 -44.0063 -44.0058
   -44.0045 -44.0038 -43.9836 -43.9813 -35.3756 -35.2928 -35.2677 -31.3565
   -31.3373 -31.2432  -9.5608  -9.2973  -8.8116  -8.7640  -2.5984  -2.4910
    -1.6136  -1.5593  -1.1813  -0.7163  -0.3860  -0.1442   0.2249   0.2536
     0.8576   1.3917   2.6690   3.3965

          k = 0.4350 0.7390 0.0000 ( 22048 PWs)   bands (ev):

   -71.0683 -57.1321 -44.0576 -44.0562 -44.0534 -44.0524 -44.0063 -44.0057
   -44.0044 -44.0039 -43.9837 -43.9814 -35.4096 -35.2695 -35.2455 -31.3755
   -31.3590 -31.1902  -9.6369  -9.3438  -8.8854  -8.8232  -3.1152  -2.2836
    -2.1384  -1.6065  -1.2823  -0.4658  -0.2984   0.3823   0.4742   0.8735
     1.4362   1.4719   2.4732   3.3110

          k = 0.4350 0.8833 0.0000 ( 22043 PWs)   bands (ev):

   -71.0692 -57.1343 -44.0584 -44.0570 -44.0531 -44.0520 -44.0063 -44.0053
   -44.0046 -44.0037 -43.9839 -43.9816 -35.4178 -35.2734 -35.2111 -31.3849
   -31.3641 -31.1516  -9.8115  -9.4198  -9.0648  -8.9359  -3.3098  -2.3030
    -1.9805  -1.5183  -1.3143  -0.4534  -0.3897   0.8146   0.8626   1.4373
     1.4819   2.0538   2.6523   2.9963

          k = 0.4350 1.0277 0.0000 ( 22065 PWs)   bands (ev):

   -71.0701 -57.1363 -44.0580 -44.0567 -44.0539 -44.0528 -44.0061 -44.0054
   -44.0044 -44.0037 -43.9840 -43.9818 -35.3850 -35.2769 -35.2211 -31.3689
   -31.3481 -31.1630  -9.9878  -9.4719  -9.2534  -9.0308  -2.9137  -1.8724
    -1.7913  -1.3896  -1.0835  -0.4769  -0.2861   0.5453   0.7077   1.0959
     1.7409   1.8301   2.1517   3.0470

          k = 0.4350 1.1720 0.0000 ( 22032 PWs)   bands (ev):

   -71.0704 -57.1370 -44.0575 -44.0562 -44.0544 -44.0533 -44.0060 -44.0055
   -44.0043 -44.0038 -43.9841 -43.9819 -35.3607 -35.2781 -35.2380 -31.3705
   -31.3208 -31.1821 -10.0481  -9.4872  -9.3177  -9.0607  -2.5886  -1.7790
    -1.5219  -1.3096  -0.8515  -0.5696  -0.1348   0.1310   0.2091   1.1180
     1.3230   1.9889   2.1898   3.0201

          k = 0.4350 1.3164 0.0000 ( 22081 PWs)   bands (ev):

   -71.0700 -57.1359 -44.0581 -44.0568 -44.0536 -44.0525 -44.0061 -44.0054
   -44.0045 -44.0037 -43.9840 -43.9817 -35.3951 -35.2762 -35.2153 -31.3680
   -31.3595 -31.1565  -9.9524  -9.4627  -9.2153  -9.0128  -3.0443  -1.9864
    -1.8499  -1.4171  -1.1666  -0.4451  -0.3279   0.6737   0.9673   1.0200
     1.6389   2.0736   2.1575   3.0418

          k = 0.5600 0.3782 0.0000 ( 22057 PWs)   bands (ev):

   -71.0697 -57.1352 -44.0583 -44.0569 -44.0534 -44.0523 -44.0062 -44.0053
   -44.0046 -44.0037 -43.9839 -43.9817 -35.4065 -35.2750 -35.2119 -31.3722
   -31.3663 -31.1526  -9.8917  -9.4446  -9.1505  -8.9801  -3.1809  -2.1419
    -1.9086  -1.4538  -1.2523  -0.4337  -0.3643   0.7683   0.9345   1.2336
     1.5426   2.0634   2.4099   3.0263

          k = 0.5600 0.5225 0.0000 ( 22046 PWs)   bands (ev):

   -71.0703 -57.1366 -44.0575 -44.0563 -44.0543 -44.0532 -44.0060 -44.0055
   -44.0043 -44.0038 -43.9841 -43.9818 -35.3676 -35.2773 -35.2360 -31.3695
   -31.3286 -31.1798 -10.0135  -9.4749  -9.2823  -9.0414  -2.6716  -1.8258
    -1.5876  -1.3271  -0.9371  -0.5520  -0.1712   0.2145   0.2812   1.1927
     1.3064   1.9169   2.1974   3.0385

          k = 0.5600 0.6668 0.0000 ( 22064 PWs)   bands (ev):

   -71.0702 -57.1364 -44.0577 -44.0564 -44.0541 -44.0530 -44.0060 -44.0055
   -44.0043 -44.0038 -43.9841 -43.9818 -35.3759 -35.2770 -35.2298 -31.3691
   -31.3379 -31.1729  -9.9953  -9.4707  -9.2627  -9.0326  -2.7837  -1.8467
    -1.6896  -1.3551  -1.0146  -0.5209  -0.2272   0.3806   0.4255   1.1696
     1.5012   1.8377   2.1874   3.0501

          k = 0.5600 0.8112 0.0000 ( 22050 PWs)   bands (ev):

   -71.0694 -57.1348 -44.0584 -44.0570 -44.0532 -44.0521 -44.0063 -44.0053
   -44.0046 -44.0037 -43.9839 -43.9816 -35.4137 -35.2741 -35.2101 -31.3803
   -31.3652 -31.1505  -9.8494  -9.4322  -9.1051  -8.9573  -3.2668  -2.2451
    -1.9438  -1.4890  -1.2944  -0.4359  -0.3868   0.8271   0.8795   1.4209
     1.4915   2.0251   2.6236   2.9788

          k = 0.5600 0.9555 0.0000 ( 22060 PWs)   bands (ev):

   -71.0685 -57.1326 -44.0579 -44.0565 -44.0532 -44.0522 -44.0063 -44.0056
   -44.0045 -44.0038 -43.9837 -43.9814 -35.4167 -35.2705 -35.2320 -31.3836
   -31.3602 -31.1750  -9.6764  -9.3644  -8.9248  -8.8513  -3.2363  -2.2774
    -2.1724  -1.5990  -1.3057  -0.4850  -0.3361   0.5674   0.7663   0.8752
     1.4633   1.8805   2.3838   3.2595

          k = 0.5600 1.0999 0.0000 ( 22015 PWs)   bands (ev):

   -71.0679 -57.1313 -44.0567 -44.0554 -44.0541 -44.0531 -44.0063 -44.0058
   -44.0045 -44.0039 -43.9837 -43.9814 -35.3825 -35.2829 -35.2681 -31.3571
   -31.3451 -31.2321  -9.5799  -9.3072  -8.8308  -8.7778  -2.6999  -2.4493
    -1.7044  -1.5763  -1.1986  -0.5182  -0.4073  -0.1716   0.2737   0.4533
     0.8752   1.4146   2.6232   3.3719

          k = 0.5600 1.2442 0.0000 ( 22016 PWs)   bands (ev):

   -71.0680 -57.1315 -44.0570 -44.0557 -44.0539 -44.0528 -44.0063 -44.0058
   -44.0044 -44.0039 -43.9837 -43.9814 -35.3916 -35.2713 -35.2685 -31.3575
   -31.3552 -31.2192  -9.5933  -9.3164  -8.8434  -8.7889  -2.8334  -2.4060
    -1.8495  -1.5893  -1.2283  -0.4244  -0.2642  -0.2087   0.3222   0.7451
     0.8808   1.4215   2.5846   3.3580

          k = 0.5600 1.3885 0.0000 ( 22060 PWs)   bands (ev):

   -71.0687 -57.1331 -44.0581 -44.0568 -44.0531 -44.0520 -44.0063 -44.0055
   -44.0045 -44.0038 -43.9838 -43.9815 -35.4203 -35.2713 -35.2226 -31.3876
   -31.3613 -31.1644  -9.7138  -9.3820  -8.9627  -8.8764  -3.3043  -2.3310
    -2.1077  -1.5846  -1.3199  -0.4893  -0.3625   0.6557   0.8718   1.0585
     1.4734   2.1859   2.3101   3.1961

          k = 0.6850 0.4503 0.0000 ( 22058 PWs)   bands (ev):

   -71.0736 -57.1442 -44.0582 -44.0571 -44.0550 -44.0539 -44.0056 -44.0050
   -44.0043 -44.0035 -43.9847 -43.9825 -35.3244 -35.2904 -35.1909 -31.3873
   -31.2804 -31.1297 -10.5626  -9.8643  -9.6573  -9.3596  -2.4942  -1.6613
    -1.2901  -1.1070  -0.3649  -0.3502  -0.0764   0.9334   1.0594   1.2991
     1.9123   2.0958   2.2956   2.6974

          k = 0.6850 0.5947 0.0000 ( 22023 PWs)   bands (ev):

   -71.0744 -57.1460 -44.0580 -44.0569 -44.0555 -44.0544 -44.0054 -44.0050
   -44.0041 -44.0035 -43.9849 -43.9827 -35.2989 -35.2936 -35.1952 -31.3916
   -31.2518 -31.1348 -10.6876  -9.9895  -9.7025  -9.4283  -2.3216  -1.6592
    -1.1738  -0.8191  -0.3698  -0.1930   0.1023   0.6278   0.6498   1.6017
     1.9330   2.1850   2.4704   2.8074

          k = 0.6850 0.7390 0.0000 ( 22064 PWs)   bands (ev):

   -71.0731 -57.1431 -44.0583 -44.0571 -44.0547 -44.0536 -44.0056 -44.0051
   -44.0043 -44.0035 -43.9846 -43.9824 -35.3364 -35.2885 -35.1914 -31.3847
   -31.2939 -31.1302 -10.4871  -9.7899  -9.6285  -9.3176  -2.5796  -1.6552
    -1.3543  -1.2159  -0.4918  -0.3913  -0.0716   1.0550   1.0938   1.2430
     1.7665   2.0045   2.4373   2.6371

          k = 0.6850 0.8833 0.0000 ( 22073 PWs)   bands (ev):

   -71.0705 -57.1371 -44.0580 -44.0567 -44.0540 -44.0529 -44.0060 -44.0054
   -44.0044 -44.0037 -43.9841 -43.9819 -35.3783 -35.2782 -35.2188 -31.3708
   -31.3407 -31.1605 -10.0494  -9.4949  -9.3163  -9.0662  -2.8496  -1.8000
    -1.7132  -1.3934  -1.0003  -0.4709  -0.2836   0.5506   0.7049   1.1372
     1.7911   1.8327   2.1265   3.0154

          k = 0.6850 1.0277 0.0000 ( 22019 PWs)   bands (ev):

   -71.0681 -57.1316 -44.0567 -44.0554 -44.0542 -44.0531 -44.0063 -44.0058
   -44.0044 -44.0039 -43.9837 -43.9814 -35.3816 -35.2799 -35.2687 -31.3578
   -31.3441 -31.2288  -9.6086  -9.3180  -8.8611  -8.7957  -2.6990  -2.4098
    -1.6926  -1.5357  -1.1824  -0.4941  -0.4288  -0.1369   0.2560   0.4684
     0.9121   1.4612   2.5755   3.3348

          k = 0.6850 1.1720 0.0000 ( 21963 PWs)   bands (ev):

   -71.0672 -57.1298 -44.0557 -44.0550 -44.0543 -44.0538 -44.0064 -44.0058
   -44.0046 -44.0038 -43.9835 -43.9812 -35.3599 -35.3232 -35.2655 -31.3535
   -31.3201 -31.2768  -9.4541  -9.2530  -8.7071  -8.6859  -2.6605  -2.3626
    -1.7361  -1.4209  -1.3004  -0.9531  -0.5608  -0.2528   0.1117   0.3228
     0.6895   1.1852   2.9605   3.5881

          k = 0.6850 1.3164 0.0000 ( 22037 PWs)   bands (ev):

   -71.0685 -57.1327 -44.0571 -44.0558 -44.0540 -44.0529 -44.0062 -44.0057
   -44.0044 -44.0039 -43.9838 -43.9815 -35.3851 -35.2706 -35.2637 -31.3604
   -31.3481 -31.2107  -9.6981  -9.3546  -8.9548  -8.8527  -2.7834  -2.2682
    -1.7604  -1.4413  -1.1895  -0.4839  -0.2212  -0.1286   0.2663   0.7844
     1.0024   1.5757   2.4441   3.2424

          k = 0.6850 1.4607 0.0000 ( 22072 PWs)   bands (ev):

   -71.0712 -57.1387 -44.0581 -44.0569 -44.0541 -44.0530 -44.0059 -44.0053
   -44.0044 -44.0036 -43.9842 -43.9820 -35.3708 -35.2809 -35.2083 -31.3744
   -31.3324 -31.1489 -10.1658  -9.5449  -9.4294  -9.1344  -2.8122  -1.7273
    -1.5960  -1.4249  -0.8852  -0.4088  -0.3042   0.7220   0.9204   1.1397
     1.7858   2.0231   2.1014   2.9321

          k = 0.8100 0.5225 0.0000 ( 21993 PWs)   bands (ev):

   -71.0785 -57.1553 -44.0583 -44.0572 -44.0570 -44.0558 -44.0049 -44.0047
   -44.0037 -44.0033 -43.9857 -43.9836 -35.3096 -35.2203 -35.1645 -31.4133
   -31.1640 -31.1010 -11.2625 -10.5556  -9.9258  -9.7396  -2.7910  -1.5911
    -0.9499  -0.1946   0.4270   0.5197   0.5972   0.6625   1.6241   1.8268
     1.9662   2.4869   2.7069   2.9887

          k = 0.8100 0.6668 0.0000 ( 22012 PWs)   bands (ev):

   -71.0781 -57.1544 -44.0583 -44.0572 -44.0568 -44.0557 -44.0049 -44.0048
   -44.0037 -44.0033 -43.9856 -43.9835 -35.3081 -35.2294 -35.1658 -31.4113
   -31.1742 -31.1024 -11.2108 -10.5051  -9.9052  -9.7128  -2.7402  -1.5436
    -1.0453  -0.2968   0.4803   0.4880   0.5283   0.5680   1.5478   1.8672
     2.0251   2.3649   2.6427   2.9332

          k = 0.8100 0.8112 0.0000 ( 22032 PWs)   bands (ev):

   -71.0749 -57.1472 -44.0581 -44.0570 -44.0556 -44.0545 -44.0054 -44.0050
   -44.0041 -44.0035 -43.9850 -43.9828 -35.2956 -35.2912 -35.1891 -31.3943
   -31.2432 -31.1280 -10.7643 -10.0654  -9.7322  -9.4713  -2.3702  -1.6137
    -1.2089  -0.7672  -0.2198  -0.1465   0.1215   0.6746   0.8751   1.5767
     2.0440   2.2031   2.4533   2.7734

          k = 0.8100 0.9555 0.0000 ( 22033 PWs)   bands (ev):

   -71.0708 -57.1378 -44.0575 -44.0563 -44.0545 -44.0534 -44.0059 -44.0054
   -44.0043 -44.0038 -43.9842 -43.9819 -35.3567 -35.2795 -35.2326 -31.3724
   -31.3164 -31.1762 -10.1093  -9.5131  -9.3777  -9.0967  -2.5641  -1.6914
    -1.5187  -1.3127  -0.7764  -0.5578  -0.1618   0.2170   0.2383   1.2206
     1.3685   2.0387   2.1663   2.9968

          k = 0.8100 1.0999 0.0000 ( 22022 PWs)   bands (ev):

   -71.0682 -57.1318 -44.0571 -44.0558 -44.0538 -44.0528 -44.0063 -44.0058
   -44.0044 -44.0039 -43.9837 -43.9814 -35.3941 -35.2691 -35.2646 -31.3584
   -31.3581 -31.2116  -9.6223  -9.3291  -8.8735  -8.8082  -2.8815  -2.3557
    -1.8925  -1.5631  -1.2313  -0.4452  -0.2269  -0.1183   0.3351   0.8670
     0.9289   1.4581   2.5334   3.3247

          k = 0.8100 1.2442 0.0000 ( 22035 PWs)   bands (ev):

   -71.0685 -57.1327 -44.0572 -44.0559 -44.0539 -44.0529 -44.0062 -44.0057
   -44.0044 -44.0039 -43.9838 -43.9815 -35.3887 -35.2706 -35.2597 -31.3604
   -31.3521 -31.2062  -9.6986  -9.3565  -8.9546  -8.8541  -2.8352  -2.2575
    -1.8173  -1.4571  -1.2054  -0.4833  -0.1915  -0.0835   0.2970   0.8989
     1.0031   1.5658   2.4380   3.2448

          k = 0.8100 1.3885 0.0000 ( 22017 PWs)   bands (ev):

   -71.0717 -57.1400 -44.0577 -44.0565 -44.0547 -44.0536 -44.0058 -44.0053
   -44.0042 -44.0037 -43.9844 -43.9821 -35.3426 -35.2831 -35.2219 -31.3774
   -31.3007 -31.1643 -10.2684  -9.5985  -9.5143  -9.1893  -2.4574  -1.5726
    -1.4512  -1.2409  -0.6274  -0.4441  -0.2076   0.2705   0.3721   1.3841
     1.5013   2.1232   2.1904   2.9417

          k = 0.8100 1.5329 0.0000 ( 22022 PWs)   bands (ev):

   -71.0759 -57.1493 -44.0582 -44.0571 -44.0559 -44.0548 -44.0052 -44.0049
   -44.0040 -44.0034 -43.9852 -43.9830 -35.2993 -35.2745 -35.1808 -31.3993
   -31.2246 -31.1188 -10.9006 -10.2001  -9.7844  -9.5466  -2.4606  -1.4948
    -1.2804  -0.6459  -0.0100   0.0155   0.2337   0.6695   1.1798   1.5677
     2.1336   2.2637   2.4673   2.7564

          k = 0.9350 0.5947 0.0000 ( 22019 PWs)   bands (ev):

   -71.0815 -57.1621 -44.0583 -44.0582 -44.0572 -44.0570 -44.0046 -44.0046
   -44.0032 -44.0031 -43.9863 -43.9842 -35.3214 -35.1556 -35.1483 -31.4292
   -31.0916 -31.0834 -11.6435 -10.9238 -10.0871  -9.9273  -3.2234  -2.0069
    -0.1095   0.0857   0.5081   1.1130   1.1621   1.4443   1.6305   1.6689
     2.4577   2.5726   2.8499   3.3953

          k = 0.9350 0.7390 0.0000 ( 22017 PWs)   bands (ev):

   -71.0792 -57.1569 -44.0583 -44.0573 -44.0572 -44.0561 -44.0048 -44.0047
   -44.0036 -44.0032 -43.9858 -43.9837 -35.3124 -35.2048 -35.1610 -31.4171
   -31.1466 -31.0972 -11.3552 -10.6458  -9.9636  -9.7870  -2.8905  -1.6852
    -0.7708  -0.0386   0.3441   0.6093   0.7863   0.7996   1.6893   1.8809
     1.9124   2.5766   2.7763   3.0871

          k = 0.9350 0.8833 0.0000 ( 22062 PWs)   bands (ev):

   -71.0745 -57.1463 -44.0582 -44.0570 -44.0554 -44.0543 -44.0054 -44.0050
   -44.0042 -44.0035 -43.9849 -43.9827 -35.3033 -35.2941 -35.1874 -31.3922
   -31.2568 -31.1260 -10.7049 -10.0058  -9.7107  -9.4388  -2.4156  -1.6428
    -1.2322  -0.9168  -0.2514  -0.1485  -0.0097   0.8048   1.0690   1.4235
     2.0711   2.1922   2.2721   2.7126

          k = 0.9350 1.0277 0.0000 ( 22065 PWs)   bands (ev):

   -71.0702 -57.1365 -44.0582 -44.0569 -44.0537 -44.0526 -44.0061 -44.0053
   -44.0045 -44.0037 -43.9840 -43.9818 -35.3928 -35.2771 -35.2117 -31.3692
   -31.3570 -31.1525  -9.9921  -9.4780  -9.2560  -9.0362  -3.0323  -1.9621
    -1.8041  -1.4225  -1.1329  -0.4228  -0.3361   0.7322   1.0089   1.0672
     1.6343   2.0508   2.2293   3.0029

          k = 0.9350 1.1720 0.0000 ( 22047 PWs)   bands (ev):

   -71.0687 -57.1332 -44.0582 -44.0568 -44.0531 -44.0520 -44.0064 -44.0054
   -44.0046 -44.0037 -43.9838 -43.9815 -35.4223 -35.2714 -35.2198 -31.3899
   -31.3615 -31.1612  -9.7173  -9.3850  -8.9657  -8.8796  -3.3360  -2.3633
    -2.0941  -1.5908  -1.3272  -0.4903  -0.3736   0.6902   0.8625   1.1718
     1.4677   2.2300   2.3618   3.1717

          k = 0.9350 1.3164 0.0000 ( 22059 PWs)   bands (ev):

   -71.0711 -57.1384 -44.0582 -44.0569 -44.0540 -44.0529 -44.0060 -44.0052
   -44.0044 -44.0036 -43.9842 -43.9820 -35.3753 -35.2804 -35.2069 -31.3737
   -31.3374 -31.1473 -10.1442  -9.5362  -9.4086  -9.1227  -2.8648  -1.7716
    -1.6273  -1.4320  -0.9327  -0.3990  -0.3088   0.7750   1.0113   1.1007
     1.7282   2.0091   2.1887   2.9242

          k = 0.9350 1.4607 0.0000 ( 22013 PWs)   bands (ev):

   -71.0757 -57.1490 -44.0582 -44.0571 -44.0559 -44.0548 -44.0052 -44.0049
   -44.0040 -44.0034 -43.9851 -43.9830 -35.2988 -35.2781 -35.1806 -31.3986
   -31.2287 -31.1186 -10.8817 -10.1814  -9.7774  -9.5364  -2.4581  -1.5168
    -1.2751  -0.6930  -0.0444   0.0394   0.1894   0.7019   1.2258   1.5259
     2.1711   2.2218   2.4111   2.7353

          k = 0.9350 1.6050 0.0000 ( 22029 PWs)   bands (ev):

   -71.0801 -57.1589 -44.0583 -44.0576 -44.0572 -44.0565 -44.0047 -44.0046
   -44.0034 -44.0032 -43.9860 -43.9839 -35.3157 -35.1867 -35.1562 -31.4216
   -31.1263 -31.0919 -11.4643 -10.7514 -10.0092  -9.8414  -3.0139  -1.8033
    -0.5425   0.1360   0.2499   0.7898   0.9382   1.0217   1.6951   1.7916
     2.1104   2.6064   2.8188   3.2051

     Writing all to output data dir ./out/MOSE2_WS2.save/

     init_run     :      0.80s CPU      0.82s WALL (       1 calls)
     electrons    :      7.92s CPU      5.64s WALL (       1 calls)

     Called by init_run:
     wfcinit      :      0.01s CPU      0.01s WALL (       1 calls)
     potinit      :      0.06s CPU      0.10s WALL (       1 calls)
     hinit0       :      0.69s CPU      0.66s WALL (       1 calls)

     Called by electrons:
     c_bands      :      7.92s CPU      5.64s WALL (       1 calls)
     v_of_rho     :      0.03s CPU      0.02s WALL (       1 calls)

     Called by c_bands:
     init_us_2    :      0.00s CPU      0.00s WALL (       4 calls)
     init_us_2:cp :      0.00s CPU      0.00s WALL (       4 calls)
     cegterg      :      7.21s CPU      4.52s WALL (       8 calls)

     Called by *egterg:
     cdiaghg      :      0.57s CPU      0.47s WALL (     111 calls)
     h_psi        :      5.44s CPU      3.03s WALL (     119 calls)
     g_psi        :      0.01s CPU      0.01s WALL (     107 calls)

     Called by h_psi:
     h_psi:calbec :      1.08s CPU      0.52s WALL (     119 calls)
     vloc_psi     :      3.85s CPU      2.12s WALL (     119 calls)
     add_vuspsi   :      0.51s CPU      0.38s WALL (     119 calls)

     General routines
     calbec       :      1.08s CPU      0.52s WALL (     119 calls)
     fft          :      0.55s CPU      0.54s WALL (      11 calls)
     fftw         :      3.65s CPU      2.01s WALL (    5224 calls)
     davcio       :      0.00s CPU      0.00s WALL (       8 calls)

     Parallel routines

     PWSCF        :      9.21s CPU      7.54s WALL


   This run was terminated on:  10:41:37   4Jul2023            

=------------------------------------------------------------------------------=
   JOB DONE.
=------------------------------------------------------------------------------=
